 Gaussian 09, Revision B.01,
 Gaussian 09:  EM64L-G09RevB.01 12-Aug-2010

 ----------------------------------------------------------------------
 # scrf=(smd,solvent=water) opt=(ts,noeigen,calcfc) freq b3lyp/6-31++g(
 d,p)
 ----------------------------------------------------------------------

 ------------
 OH-BACK-TERM
 ------------
 Symbolic Z-matrix:
 Charge =  0 Multiplicity = 1

 SCF Done:  E(RB3LYP) =  -269.510257124     A.U. after   14 cycles
 SCF Done:  E(RB3LYP) =  -269.511290024     A.U. after   12 cycles
 SCF Done:  E(RB3LYP) =  -269.511389119     A.U. after   12 cycles
 SCF Done:  E(RB3LYP) =  -269.511315731     A.U. after   11 cycles
 SCF Done:  E(RB3LYP) =  -269.511406530     A.U. after   11 cycles
 SCF Done:  E(RB3LYP) =  -269.511398329     A.U. after   10 cycles
 SCF Done:  E(RB3LYP) =  -269.511408891     A.U. after   10 cycles
 Optimization completed.
    -- Stationary point found.
 Normal termination of Gaussian 09 at Thu Apr 26 15:39:13 2018.

 ----------------------------------------------------------------------
 #N Geom=AllCheck Guess=TCheck SCRF=Check GenChk RB3LYP/6-31++G(d,p) Fr
 eq
 ----------------------------------------------------------------------

 OH-BACK-TERM
 ------------
 Redundant internal coordinates taken from checkpoint file:
 H2O-term.chk
 Charge =  0 Multiplicity = 1

                         Standard orientation:
 ---------------------------------------------------------------------
 Center     Atomic      Atomic             Coordinates (Angstroms)
 Number     Number       Type             X           Y           Z
 ---------------------------------------------------------------------
      1          6           0       -0.828936    0.076799    0.481942
      2          6           0        0.267273   -0.880845    0.702616
      3          8           0        0.008718    1.204080    0.289652
      4          1           0       -1.422420    0.166026    1.408513
      5          1           0        0.465357   -1.726400    0.053032
      6          1           0        0.846457   -0.797838    1.616394
      7          6           0       -1.751046   -0.233444   -0.689297
      8          1           0       -2.316911   -1.152976   -0.497958
      9          1           0       -2.463450    0.586077   -0.827483
     10          1           0       -1.177607   -0.357748   -1.614078
     11          8           0        1.980308   -0.095489   -0.628683
     12          1           0        2.705672   -0.008173    0.009743
     13          1           0        1.326940    0.647240   -0.407477
 ---------------------------------------------------------------------

 SCF Done:  E(RB3LYP) =  -269.511408891     A.U. after    1 cycles

 The electronic state is 1-A.
 Alpha  occ. eigenvalues --  -19.16742 -19.11877 -10.28723 -10.24455 -10.17435
 Alpha  occ. eigenvalues --   -1.01593  -0.96431  -0.76344  -0.70131  -0.58268
 Alpha  occ. eigenvalues --   -0.52986  -0.48844  -0.46353  -0.43387  -0.40595
 Alpha  occ. eigenvalues --   -0.38155  -0.36894  -0.36150  -0.33491  -0.25517
 Alpha  occ. eigenvalues --   -0.25247
 Alpha virt. eigenvalues --   -0.11422  -0.00113   0.01535   0.02285   0.03441
 Alpha virt. eigenvalues --    0.05087   0.05226   0.05674   0.06455   0.08101
 Alpha virt. eigenvalues --    0.09763   0.10891   0.11582   0.12863   0.13782

 Mulliken atomic charges:
              1
     1  C    0.258763
     2  C   -0.141476
     3  O   -0.777867
     4  H    0.170109
     5  H    0.238232
     6  H    0.250749
     7  C   -0.634927
     8  H    0.165025
     9  H    0.173849
    10  H    0.178918
    11  O   -0.742471
    12  H    0.418055
    13  H    0.443042
 Sum of Mulliken atomic charges =   0.00000

 Dipole moment (field-independent basis, Debye):
    X=              0.0342    Y=             -5.2928    Z=              2.8928  Tot=              6.0319
 Quadrupole moment (field-independent basis, Debye-Ang):
   XX=            -26.9775   YY=            -35.7509   ZZ=            -32.3144
   XY=              0.6656   XZ=              4.7167   YZ=             -3.4504

  Exact polarizability:  86.792  -4.557  83.379  -7.017  -4.433  66.914
 Approx polarizability:  81.310  -4.824  93.818  -8.361  -7.405  65.628

 ******    1 imaginary frequencies (negative Signs) ******

                     1                      2                      3
                     A                      A                      A
 Frequencies --  -476.4461                88.6870               226.1263
 Red. masses --     4.4054                 3.8225                 1.1159
 Frc consts  --     0.5892                 0.0177                 0.0336
 IR Inten    --   230.5043                 1.0371                11.6106

                     4                      5                      6
                     A                      A                      A
 Frequencies --   302.4245               351.9053               385.8721
 Red. masses --     3.1582                 2.1131                 4.8101
 Frc consts  --     0.1702                 0.1542                 0.4220
 IR Inten    --   203.2735                43.1491               158.6854

                     7                      8                      9
                     A                      A                      A
 Frequencies --   422.6977               459.6200               521.9955
 Red. masses --     1.4901                 1.7020                 1.0805
 Frc consts  --     0.1569                 0.2118                 0.1735
 IR Inten    --    62.0332                76.2228               157.7668

                    10                     11                     12
                     A                      A                      A
 Frequencies --   697.1085               850.6773               915.7575
 Red. masses --     1.1216                 2.3708                 1.1809
 Frc consts  --     0.3211                 1.0108                 0.5835
 IR Inten    --     5.4180                13.6475                 9.2652

                    13                     14                     15
                     A                      A                      A
 Frequencies --   948.7044               964.1782              1071.7916
 Red. masses --     1.8294                 1.0726                 1.3367
 Frc consts  --     0.9701                 0.5875                 0.9047
 IR Inten    --    54.2323               443.6643                 3.5908

                    16                     17                     18
                     A                      A                      A
 Frequencies --  1152.3442              1172.2195              1192.5736
 Red. masses --     2.3376                 1.6405                 2.5351
 Frc consts  --     1.8289                 1.3281                 2.1243
 IR Inten    --    35.5726                16.7843                62.6251

                    19                     20                     21
                     A                      A                      A
 Frequencies --  1278.9550              1374.8548              1401.7301
 Red. masses --     1.2199                 1.3616                 1.4368
 Frc consts  --     1.1757                 1.5164                 1.6633
 IR Inten    --     7.0240                 6.3157                28.4375

                    22                     23                     24
                     A                      A                      A
 Frequencies --  1458.2777              1470.9688              1481.8670
 Red. masses --     1.0598                 1.0484                 1.2790
 Frc consts  --     1.3279                 1.3365                 1.6548
 IR Inten    --    16.4307                 9.6046                 8.3918

                    25                     26                     27
                     A                      A                      A
 Frequencies --  1579.2314              2818.6769              2963.4163
 Red. masses --     1.0685                 1.0796                 1.0793
 Frc consts  --     1.5701                 5.0538                 5.5844
 IR Inten    --   115.2314               813.7553                51.8863

                    28                     29                     30
                     A                      A                      A
 Frequencies --  3039.3940              3112.3420              3123.0270
 Red. masses --     1.0356                 1.1022                 1.1036
 Frc consts  --     5.6366                 6.2908                 6.3419
 IR Inten    --    23.6587                39.9363                38.4394

                    31                     32                     33
                     A                      A                      A
 Frequencies --  3186.6072              3308.1016              3806.6171
 Red. masses --     1.0536                 1.1223                 1.0659
 Frc consts  --     6.3035                 7.2360                 9.1005
 IR Inten    --     2.0079                 2.8804               170.6746

 - Thermochemistry -
 -------------------
 Temperature   298.150 Kelvin.  Pressure   1.00000 Atm.
 Atom     1 has atomic number  6 and mass  12.00000

 Molecular mass:    76.05243 amu.
 Principal axes and moments of inertia in atomic units:
                           1         2         3
     Eigenvalues --   248.10814 585.74225 617.87155
           X            0.99923   0.01202   0.03732
           Y           -0.00909   0.99695  -0.07753
           Z           -0.03814   0.07713   0.99629
 This molecule is an asymmetric top.
 Rotational symmetry number  1.
 Rotational temperatures (Kelvin)      0.34910     0.14787     0.14018
 Rotational constants (GHZ):           7.27401     3.08112     2.92090
    1 imaginary frequencies ignored.
 Zero-point vibrational energy     281892.5 (Joules/Mol)
                                   67.37393 (Kcal/Mol)
 Warning -- explicit consideration of   8 degrees of freedom as
           vibrations may cause significant error
 Vibrational temperatures:    127.60   325.34   435.12   506.31   555.18
          (Kelvin)            608.17   661.29   751.03  1002.98  1223.93
                             1317.57  1364.97  1387.24  1542.07  1657.96
                             1686.56  1715.85  1840.13  1978.11  2016.77
                             2098.13  2116.39  2132.07  2272.16  4055.44
                             4263.69  4373.00  4477.96  4493.33  4584.81
                             4759.61  5476.87

 Zero-point correction=                           0.107367 (Hartree/Particle)
 Thermal correction to Energy=                    0.113778
 Thermal correction to Enthalpy=                  0.114722
 Thermal correction to Gibbs Free Energy=         0.077904
 Sum of electronic and zero-point Energies=           -269.404042
 Sum of electronic and thermal Energies=              -269.397631
 Sum of electronic and thermal Enthalpies=            -269.396687
 Sum of electronic and thermal Free Energies=         -269.433505

                     E (Thermal)             CV                S
                      KCal/Mol        Cal/Mol-Kelvin    Cal/Mol-Kelvin
 Total                   71.397             22.825             77.491
 Electronic               0.000              0.000              0.000
 Translational            0.889              2.981             38.902
 Rotational               0.889              2.981             25.999
 Vibrational             69.619             16.863             12.590
 Vibration     1          0.602              1.957              3.689
 Vibration     2          0.650              1.801              1.909
 Vibration     3          0.694              1.669              1.403
 Vibration     4          0.728              1.571              1.158
 Vibration     5          0.755              1.500              1.016
 Vibration     6          0.785              1.421              0.883
 Vibration     7          0.818              1.340              0.767
 Vibration     8          0.877              1.201              0.605

 Optimization completed.
    -- Stationary point found.
 Normal termination of Gaussian 09 at Thu Apr 26 15:39:35 2018.
