 Gaussian 09, Revision B.01,
 Gaussian 09:  EM64L-G09RevB.01 12-Aug-2010

 ----------------------------------------------------------------------
 # scrf=(smd,solvent=water) opt=(ts,noeigen,calcfc) freq b3lyp/6-31++g(
 d,p)
 ----------------------------------------------------------------------

 -----------
 OH-BACK-MID
 -----------
 Symbolic Z-matrix:
 Charge =  0 Multiplicity = 1

 SCF Done:  E(RB3LYP) =  -269.519238883     A.U. after   13 cycles
 SCF Done:  E(RB3LYP) =  -269.522124621     A.U. after   12 cycles
 SCF Done:  E(RB3LYP) =  -269.522373230     A.U. after   12 cycles
 SCF Done:  E(RB3LYP) =  -269.522425290     A.U. after   11 cycles
 SCF Done:  E(RB3LYP) =  -269.522407836     A.U. after   11 cycles
 SCF Done:  E(RB3LYP) =  -269.522190504     A.U. after   11 cycles
 SCF Done:  E(RB3LYP) =  -269.522417201     A.U. after   11 cycles
 SCF Done:  E(RB3LYP) =  -269.522424767     A.U. after   10 cycles
 SCF Done:  E(RB3LYP) =  -269.522424186     A.U. after   10 cycles
 SCF Done:  E(RB3LYP) =  -269.522422984     A.U. after    9 cycles
 SCF Done:  E(RB3LYP) =  -269.522424634     A.U. after    9 cycles
 SCF Done:  E(RB3LYP) =  -269.522424421     A.U. after    9 cycles
 Optimization completed.
    -- Stationary point found.
 Normal termination of Gaussian 09 at Thu Apr 26 15:39:25 2018.

 ----------------------------------------------------------------------
 #N Geom=AllCheck Guess=TCheck SCRF=Check GenChk RB3LYP/6-31++G(d,p) Fr
 eq
 ----------------------------------------------------------------------

 OH-BACK-MID
 -----------
 Redundant internal coordinates taken from checkpoint file:
 H2O-mid.chk
 Charge =  0 Multiplicity = 1

                         Standard orientation:
 ---------------------------------------------------------------------
 Center     Atomic      Atomic             Coordinates (Angstroms)
 Number     Number       Type             X           Y           Z
 ---------------------------------------------------------------------
      1          6           0        0.665042   -0.180511    0.579943
      2          6           0        0.232568    1.231793    0.413863
      3          8           0       -0.643912    1.146410   -0.687780
      4          1           0        0.394232   -0.735791    1.475396
      5          1           0        1.124496    1.853077    0.213068
      6          1           0       -0.249839    1.610593    1.325941
      7          6           0        1.542632   -0.844969   -0.368378
      8          1           0        2.500394   -0.890254    0.192049
      9          1           0        1.273864   -1.891308   -0.540983
     10          1           0        1.699080   -0.295838   -1.296480
     11          8           0       -1.586506   -1.112210   -0.004587
     12          1           0       -2.138458   -0.990020    0.782348
     13          1           0       -1.401877   -0.171939   -0.364967
 ---------------------------------------------------------------------

 SCF Done:  E(RB3LYP) =  -269.522424421     A.U. after    1 cycles

 The electronic state is 1-A.
 Alpha  occ. eigenvalues --  -19.15058 -19.10666 -10.29965 -10.23720 -10.20553
 Alpha  occ. eigenvalues --   -0.99965  -0.95212  -0.81074  -0.68910  -0.58752
 Alpha  occ. eigenvalues --   -0.51804  -0.49861  -0.45781  -0.43506  -0.40697
 Alpha  occ. eigenvalues --   -0.39938  -0.39170  -0.37041  -0.31544  -0.25042
 Alpha  occ. eigenvalues --   -0.24451
 Alpha virt. eigenvalues --   -0.11744  -0.00208   0.01598   0.02260   0.02711
 Alpha virt. eigenvalues --    0.05035   0.05584   0.05668   0.06149   0.07744
 Alpha virt. eigenvalues --    0.09789   0.11145   0.11920   0.13028   0.13508

 Mulliken atomic charges:
              1
     1  C    0.580235
     2  C   -0.284258
     3  O   -0.837653
     4  H    0.263583
     5  H    0.168998
     6  H    0.166206
     7  C   -0.753100
     8  H    0.232413
     9  H    0.221210
    10  H    0.230478
    11  O   -0.827172
    12  H    0.402240
    13  H    0.436820
 Sum of Mulliken atomic charges =   0.00000

 Dipole moment (field-independent basis, Debye):
    X=              5.6425    Y=             -2.2679    Z=              5.8144  Tot=              8.4136
 Quadrupole moment (field-independent basis, Debye-Ang):
   XX=            -27.3181   YY=            -37.5382   ZZ=            -31.2614
   XY=             -1.2305   XZ=             -4.7712   YZ=              2.0567

  Exact polarizability:  90.838  -5.946  84.024   5.113  -5.567  66.843
 Approx polarizability:  89.717  -7.207  80.787   9.021  -8.006  68.279

 ******    1 imaginary frequencies (negative Signs) ******

                     1                      2                      3
                     A                      A                      A
 Frequencies --  -342.8872                92.4395               180.3281
 Red. masses --     3.9623                 3.1674                 2.0296
 Frc consts  --     0.2745                 0.0159                 0.0389
 IR Inten    --   107.6162                 8.3754                95.2005

                     4                      5                      6
                     A                      A                      A
 Frequencies --   222.5331               263.6306               313.0330
 Red. masses --     1.5292                 1.9626                 3.2850
 Frc consts  --     0.0446                 0.0804                 0.1897
 IR Inten    --    20.7079                47.3983               150.9407

                     7                      8                      9
                     A                      A                      A
 Frequencies --   342.9102               416.4935               516.0808
 Red. masses --     1.3760                 2.0741                 1.0750
 Frc consts  --     0.0953                 0.2120                 0.1687
 IR Inten    --   229.1690                69.6486               163.0872

                    10                     11                     12
                     A                      A                      A
 Frequencies --   763.5488               878.0805               931.2730
 Red. masses --     1.2728                 1.6147                 1.7881
 Frc consts  --     0.4372                 0.7335                 0.9137
 IR Inten    --   107.0104                15.9976                53.3871

                    13                     14                     15
                     A                      A                      A
 Frequencies --   987.6553              1101.7260              1138.7577
 Red. masses --     1.3993                 1.0659                 1.7050
 Frc consts  --     0.8042                 0.7622                 1.3027
 IR Inten    --   115.4624               326.0727                81.6079

                    16                     17                     18
                     A                      A                      A
 Frequencies --  1193.1957              1233.0767              1256.7925
 Red. masses --     1.4920                 1.5538                 2.8807
 Frc consts  --     1.2516                 1.3920                 2.6809
 IR Inten    --     8.1803                27.0676                96.9505

                    19                     20                     21
                     A                      A                      A
 Frequencies --  1325.5475              1370.2787              1380.1173
 Red. masses --     1.2032                 1.1743                 1.3545
 Frc consts  --     1.2456                 1.2992                 1.5200
 IR Inten    --   102.2860                33.7509                15.8646

                    22                     23                     24
                     A                      A                      A
 Frequencies --  1420.8851              1483.0400              1493.9983
 Red. masses --     1.2489                 1.1181                 1.4662
 Frc consts  --     1.4855                 1.4489                 1.9282
 IR Inten    --    49.8685                 5.4792                18.0368

                    25                     26                     27
                     A                      A                      A
 Frequencies --  1585.9212              2616.2643              2949.3322
 Red. masses --     1.0666                 1.0858                 1.0618
 Frc consts  --     1.5806                 4.3787                 5.4420
 IR Inten    --   131.6992              1464.0357                72.5623

                    28                     29                     30
                     A                      A                      A
 Frequencies --  2954.4826              3028.4126              3099.2664
 Red. masses --     1.0631                 1.0947                 1.0679
 Frc consts  --     5.4674                 5.9153                 6.0435
 IR Inten    --    33.6784               100.0083                 0.9105

                    31                     32                     33
                     A                      A                      A
 Frequencies --  3183.1896              3214.8703              3815.3353
 Red. masses --     1.1058                 1.0913                 1.0658
 Frc consts  --     6.6017                 6.6454                 9.1407
 IR Inten    --     4.1472                 6.0549               121.8136

 - Thermochemistry -
 -------------------
 Temperature   298.150 Kelvin.  Pressure   1.00000 Atm.
 Atom     1 has atomic number  6 and mass  12.00000

 Molecular mass:    76.05243 amu.
 Principal axes and moments of inertia in atomic units:
                           1         2         3
     Eigenvalues --   363.90380 436.59915 644.42053
           X            0.99710  -0.06563  -0.03864
           Y            0.06694   0.99718   0.03379
           Z            0.03632  -0.03628   0.99868
 This molecule is an asymmetric top.
 Rotational symmetry number  1.
 Rotational temperatures (Kelvin)      0.23801     0.19838     0.13441
 Rotational constants (GHZ):           4.95939     4.13363     2.80056
    1 imaginary frequencies ignored.
 Zero-point vibrational energy     279642.0 (Joules/Mol)
                                   66.83605 (Kcal/Mol)
 Warning -- explicit consideration of   8 degrees of freedom as
           vibrations may cause significant error
 Vibrational temperatures:    133.00   259.45   320.18   379.31   450.38
          (Kelvin)            493.37   599.24   742.52  1098.58  1263.36
                             1339.89  1421.01  1585.14  1638.42  1716.74
                             1774.12  1808.24  1907.16  1971.52  1985.68
                             2044.33  2133.76  2149.53  2281.78  3764.22
                             4243.43  4250.84  4357.20  4459.15  4579.89
                             4625.48  5489.41

 Zero-point correction=                           0.106510 (Hartree/Particle)
 Thermal correction to Energy=                    0.113331
 Thermal correction to Enthalpy=                  0.114275
 Thermal correction to Gibbs Free Energy=         0.076473
 Sum of electronic and zero-point Energies=           -269.415914
 Sum of electronic and thermal Energies=              -269.409094
 Sum of electronic and thermal Enthalpies=            -269.408150
 Sum of electronic and thermal Free Energies=         -269.445952

                     E (Thermal)             CV                S
                      KCal/Mol        Cal/Mol-Kelvin    Cal/Mol-Kelvin
 Total                   71.116             23.078             79.561
 Electronic               0.000              0.000              0.000
 Translational            0.889              2.981             38.902
 Rotational               0.889              2.981             26.129
 Vibrational             69.339             17.117             14.530
 Vibration     1          0.602              1.955              3.608
 Vibration     2          0.629              1.866              2.325
 Vibration     3          0.648              1.807              1.938
 Vibration     4          0.670              1.740              1.638
 Vibration     5          0.701              1.649              1.346
 Vibration     6          0.722              1.590              1.199
 Vibration     7          0.780              1.434              0.904
 Vibration     8          0.871              1.214              0.619

 Optimization completed.
    -- Stationary point found.
 Normal termination of Gaussian 09 at Thu Apr 26 15:39:56 2018.
