 Gaussian 09, Revision B.01,
 Gaussian 09:  EM64L-G09RevB.01 12-Aug-2010

 ----------------------------------------------------------------------
 # scrf=(smd,solvent=water) opt=(ts,noeigen,calcfc) freq b3lyp/6-31++g(
 d,p)
 ----------------------------------------------------------------------

 -------------
 H3O-BACK-TERM
 -------------
 Symbolic Z-matrix:
 Charge =  1 Multiplicity = 1

 SCF Done:  E(RB3LYP) =  -269.994088622     A.U. after   12 cycles
 SCF Done:  E(RB3LYP) =  -269.994758095     A.U. after   13 cycles
 SCF Done:  E(RB3LYP) =  -269.995049898     A.U. after   11 cycles
 SCF Done:  E(RB3LYP) =  -269.995057663     A.U. after   13 cycles
 SCF Done:  E(RB3LYP) =  -269.994955058     A.U. after   10 cycles
 SCF Done:  E(RB3LYP) =  -269.995214714     A.U. after   10 cycles
 SCF Done:  E(RB3LYP) =  -269.994991742     A.U. after   13 cycles
 SCF Done:  E(RB3LYP) =  -269.995200211     A.U. after   13 cycles
 SCF Done:  E(RB3LYP) =  -269.995209143     A.U. after    9 cycles
 SCF Done:  E(RB3LYP) =  -269.995222335     A.U. after    9 cycles
 SCF Done:  E(RB3LYP) =  -269.994991192     A.U. after   10 cycles
 SCF Done:  E(RB3LYP) =  -269.995252430     A.U. after   13 cycles
 SCF Done:  E(RB3LYP) =  -269.995226534     A.U. after   13 cycles
 SCF Done:  E(RB3LYP) =  -269.995354432     A.U. after   10 cycles
 SCF Done:  E(RB3LYP) =  -269.995418413     A.U. after    9 cycles
 SCF Done:  E(RB3LYP) =  -269.995424944     A.U. after    9 cycles
 SCF Done:  E(RB3LYP) =  -269.995425811     A.U. after    8 cycles
 SCF Done:  E(RB3LYP) =  -269.995425859     A.U. after    8 cycles
 SCF Done:  E(RB3LYP) =  -269.995425921     A.U. after    7 cycles
 Optimization completed.
    -- Stationary point found.
 Normal termination of Gaussian 09 at Thu Apr 26 15:43:36 2018.

 ----------------------------------------------------------------------
 #N Geom=AllCheck Guess=TCheck SCRF=Check GenChk RB3LYP/6-31++G(d,p) Fr
 eq
 ----------------------------------------------------------------------

 H3O-BACK-TERM
 -------------
 Redundant internal coordinates taken from checkpoint file:
 H3O-term.chk
 Charge =  1 Multiplicity = 1

                         Standard orientation:
 ---------------------------------------------------------------------
 Center     Atomic      Atomic             Coordinates (Angstroms)
 Number     Number       Type             X           Y           Z
 ---------------------------------------------------------------------
      1          6           0        0.629847    0.121386    0.443835
      2          6           0       -0.291122   -0.791018   -0.223361
      3          1           0        0.659215    0.056559    1.529018
      4          1           0       -0.467438   -0.685812   -1.285560
      5          1           0       -0.661367   -1.662853    0.299195
      6          6           0        0.928126    1.472534   -0.129348
      7          1           0        0.153790    2.170654    0.205192
      8          1           0        1.894544    1.832636    0.233650
      9          1           0        0.931357    1.447581   -1.222430
     10          8           0        1.480954   -0.952252   -0.164530
     11          1           0        1.699380   -1.620596    0.513827
     12          8           0       -2.291252    0.125710    0.141531
     13          1           0       -2.393349    0.815271   -0.533720
     14          1           0       -2.934846   -0.558520   -0.101935
 ---------------------------------------------------------------------

 SCF Done:  E(RB3LYP) =  -269.995425921     A.U. after    1 cycles

 The electronic state is 1-A.
 Alpha  occ. eigenvalues --  -19.24513 -19.18973 -10.29614 -10.28445 -10.19248
 Alpha  occ. eigenvalues --   -1.10345  -1.03662  -0.81239  -0.72600  -0.62132
 Alpha  occ. eigenvalues --   -0.58111  -0.54884  -0.48968  -0.47575  -0.43671
 Alpha  occ. eigenvalues --   -0.43060  -0.40977  -0.39167  -0.38124  -0.36900
 Alpha  occ. eigenvalues --   -0.33303
 Alpha virt. eigenvalues --   -0.05410  -0.01116   0.01266   0.01613   0.02590
 Alpha virt. eigenvalues --    0.03672   0.04636   0.04908   0.06162   0.06980
 Alpha virt. eigenvalues --    0.07345   0.09342   0.10420   0.10703   0.11646

 Mulliken atomic charges:
              1
     1  C    0.116644
     2  C   -0.134794
     3  H    0.242309
     4  H    0.272499
     5  H    0.257188
     6  C   -0.576355
     7  H    0.188781
     8  H    0.197335
     9  H    0.194490
    10  O   -0.389465
    11  H    0.482363
    12  O   -0.718170
    13  H    0.430211
    14  H    0.436964
 Sum of Mulliken atomic charges =   1.00000

 Dipole moment (field-independent basis, Debye):
    X=             -1.9185    Y=             -2.6040    Z=             -0.1256  Tot=              3.2369
 Quadrupole moment (field-independent basis, Debye-Ang):
   XX=            -17.2907   YY=            -20.6536   ZZ=            -27.4967
   XY=              0.0223   XZ=              9.0071   YZ=             -3.5086

  Exact polarizability:  77.025  -4.406  61.097   0.952   0.558  53.429
 Approx polarizability:  78.670  -6.455  59.934  -0.293   0.874  53.347

 ******    1 imaginary frequencies (negative Signs) ******

                     1                      2                      3
                     A                      A                      A
 Frequencies --  -366.4917               142.4053               184.4544
 Red. masses --     9.2276                 3.6909                 1.7589
 Frc consts  --     0.7302                 0.0441                 0.0353
 IR Inten    --   654.6539                 2.7640                 9.1710

                     4                      5                      6
                     A                      A                      A
 Frequencies --   237.4143               257.6514               282.8067
 Red. masses --     1.4412                 1.0782                 5.5907
 Frc consts  --     0.0479                 0.0422                 0.2634
 IR Inten    --     5.1226               114.5702                25.7767

                     7                      8                      9
                     A                      A                      A
 Frequencies --   381.2401               409.8468               476.9761
 Red. masses --     2.1919                 2.2128                 1.1678
 Frc consts  --     0.1877                 0.2190                 0.1565
 IR Inten    --    23.4577                14.6529               312.1884

                    10                     11                     12
                     A                      A                      A
 Frequencies --   515.8413               769.5481               798.0313
 Red. masses --     1.1091                 1.3825                 2.4227
 Frc consts  --     0.1739                 0.4824                 0.9090
 IR Inten    --    62.8334               146.8583               145.2618

                    13                     14                     15
                     A                      A                      A
 Frequencies --   873.1072               918.3081              1013.9535
 Red. masses --     1.5010                 1.4543                 1.0927
 Frc consts  --     0.6742                 0.7226                 0.6619
 IR Inten    --     5.7809                42.1790                15.7734

                    16                     17                     18
                     A                      A                      A
 Frequencies --  1044.2005              1110.0323              1160.5298
 Red. masses --     1.2854                 1.3807                 1.1991
 Frc consts  --     0.8258                 1.0023                 0.9515
 IR Inten    --     0.0476                91.7872                 1.8799

                    19                     20                     21
                     A                      A                      A
 Frequencies --  1222.6039              1246.5926              1302.3670
 Red. masses --     1.4032                 1.4184                 1.4360
 Frc consts  --     1.2358                 1.2986                 1.4351
 IR Inten    --     5.0944                34.1943                23.4190

                    22                     23                     24
                     A                      A                      A
 Frequencies --  1399.0316              1436.0597              1455.8318
 Red. masses --     1.2167                 1.3624                 1.0648
 Frc consts  --     1.4031                 1.6553                 1.3296
 IR Inten    --     5.6798                13.7493                19.7407

                    25                     26                     27
                     A                      A                      A
 Frequencies --  1475.3124              1499.4594              1595.0030
 Red. masses --     1.0678                 1.7516                 1.0799
 Frc consts  --     1.3693                 2.3204                 1.6186
 IR Inten    --    19.9022                25.5974               156.4514

                    28                     29                     30
                     A                      A                      A
 Frequencies --  3060.7784              3136.9600              3146.9796
 Red. masses --     1.0354                 1.1020                 1.1052
 Frc consts  --     5.7151                 6.3894                 6.4488
 IR Inten    --     5.1300                 8.5982                12.9813

                    31                     32                     33
                     A                      A                      A
 Frequencies --  3194.5487              3215.7255              3348.1766
 Red. masses --     1.0921                 1.0532                 1.1283
 Frc consts  --     6.5666                 6.4170                 7.4522
 IR Inten    --     3.3966                 2.7235                10.0778

                    34                     35                     36
                     A                      A                      A
 Frequencies --  3694.6636              3760.7098              3853.1774
 Red. masses --     1.0682                 1.0458                 1.0821
 Frc consts  --     8.5909                 8.7145                 9.4658
 IR Inten    --   346.7707               102.7319               195.4642

 - Thermochemistry -
 -------------------
 Temperature   298.150 Kelvin.  Pressure   1.00000 Atm.
 Atom     1 has atomic number  6 and mass  12.00000

 Molecular mass:    77.06025 amu.
 Principal axes and moments of inertia in atomic units:
                           1         2         3
     Eigenvalues --   269.80978 601.41016 799.21012
           X            0.99904   0.03849   0.02076
           Y           -0.03790   0.99889  -0.02807
           Z           -0.02182   0.02726   0.99939
 This molecule is an asymmetric top.
 Rotational symmetry number  1.
 Rotational temperatures (Kelvin)      0.32102     0.14402     0.10837
 Rotational constants (GHZ):           6.68894     3.00085     2.25816
    1 imaginary frequencies ignored.
 Zero-point vibrational energy     320720.8 (Joules/Mol)
                                   76.65411 (Kcal/Mol)
 Warning -- explicit consideration of   9 degrees of freedom as
           vibrations may cause significant error
 Vibrational temperatures:    204.89   265.39   341.59   370.70   406.90
          (Kelvin)            548.52   589.68   686.26   742.18  1107.21
                             1148.19  1256.21  1321.24  1458.85  1502.37
                             1597.09  1669.74  1759.05  1793.57  1873.81
                             2012.89  2066.17  2094.61  2122.64  2157.38
                             2294.85  4403.77  4513.38  4527.80  4596.24
                             4626.71  4817.27  5315.79  5410.82  5543.86

 Zero-point correction=                           0.122156 (Hartree/Particle)
 Thermal correction to Energy=                    0.129195
 Thermal correction to Enthalpy=                  0.130140
 Thermal correction to Gibbs Free Energy=         0.092197
 Sum of electronic and zero-point Energies=           -269.873270
 Sum of electronic and thermal Energies=              -269.866230
 Sum of electronic and thermal Enthalpies=            -269.865286
 Sum of electronic and thermal Free Energies=         -269.903229

                     E (Thermal)             CV                S
                      KCal/Mol        Cal/Mol-Kelvin    Cal/Mol-Kelvin
 Total                   81.071             25.026             79.857
 Electronic               0.000              0.000              0.000
 Translational            0.889              2.981             38.941
 Rotational               0.889              2.981             26.364
 Vibrational             79.294             19.064             14.552
 Vibration     1          0.616              1.911              2.771
 Vibration     2          0.631              1.861              2.283
 Vibration     3          0.656              1.783              1.822
 Vibration     4          0.667              1.750              1.678
 Vibration     5          0.682              1.706              1.517
 Vibration     6          0.751              1.510              1.034
 Vibration     7          0.774              1.449              0.927
 Vibration     8          0.834              1.301              0.718
 Vibration     9          0.871              1.215              0.620

 Optimization completed.
    -- Stationary point found.
 Normal termination of Gaussian 09 at Thu Apr 26 15:44:18 2018.
