 Gaussian 09, Revision B.01,
 Gaussian 09:  EM64L-G09RevB.01 12-Aug-2010

 ----------------------------------------------------------------------
 # scrf=(smd,solvent=water) opt=(ts,noeigen,calcfc) freq b3lyp/6-31++g(
 d,p)
 ----------------------------------------------------------------------

 -------------
 H3O-BACK-MIDM
 -------------
 Symbolic Z-matrix:
 Charge =  1 Multiplicity = 1

 SCF Done:  E(RB3LYP) =  -269.993832916     A.U. after   12 cycles
 SCF Done:  E(RB3LYP) =  -269.994534314     A.U. after   10 cycles
 SCF Done:  E(RB3LYP) =  -269.994898455     A.U. after   10 cycles
 SCF Done:  E(RB3LYP) =  -269.995402648     A.U. after   10 cycles
 SCF Done:  E(RB3LYP) =  -269.995611342     A.U. after   10 cycles
 SCF Done:  E(RB3LYP) =  -269.995835029     A.U. after   11 cycles
 SCF Done:  E(RB3LYP) =  -269.995848098     A.U. after   10 cycles
 SCF Done:  E(RB3LYP) =  -269.995987853     A.U. after   11 cycles
 SCF Done:  E(RB3LYP) =  -269.995860516     A.U. after   10 cycles
 SCF Done:  E(RB3LYP) =  -269.995874018     A.U. after   10 cycles
 SCF Done:  E(RB3LYP) =  -269.996263606     A.U. after    9 cycles
 SCF Done:  E(RB3LYP) =  -269.996266293     A.U. after   10 cycles
 SCF Done:  E(RB3LYP) =  -269.996272891     A.U. after    9 cycles
 SCF Done:  E(RB3LYP) =  -269.996262755     A.U. after    9 cycles
 SCF Done:  E(RB3LYP) =  -269.996274147     A.U. after    9 cycles
 SCF Done:  E(RB3LYP) =  -269.996274378     A.U. after    8 cycles
 SCF Done:  E(RB3LYP) =  -269.996274483     A.U. after    7 cycles
 SCF Done:  E(RB3LYP) =  -269.996274518     A.U. after    7 cycles
 SCF Done:  E(RB3LYP) =  -269.996274537     A.U. after    7 cycles
 Optimization completed.
    -- Stationary point found.
 Normal termination of Gaussian 09 at Thu Apr 26 15:49:00 2018.

 ----------------------------------------------------------------------
 #N Geom=AllCheck Guess=TCheck SCRF=Check GenChk RB3LYP/6-31++G(d,p) Fr
 eq
 ----------------------------------------------------------------------

 H3O-BACK-MIDM
 -------------
 Redundant internal coordinates taken from checkpoint file:
 H3O-mid.chk
 Charge =  1 Multiplicity = 1

                         Standard orientation:
 ---------------------------------------------------------------------
 Center     Atomic      Atomic             Coordinates (Angstroms)
 Number     Number       Type             X           Y           Z
 ---------------------------------------------------------------------
      1          6           0       -0.137390    0.222940   -0.359251
      2          6           0       -0.633357   -0.903447    0.423950
      3          1           0        0.026179    0.042656   -1.417085
      4          1           0       -0.618914   -0.807301    1.506144
      5          1           0       -0.439891   -1.906242    0.054363
      6          6           0        0.000188    1.594256    0.161141
      7          1           0        1.047178    1.889901    0.018323
      8          1           0       -0.595980    2.286441   -0.442337
      9          1           0       -0.260583    1.671964    1.217607
     10          8           0       -1.887553   -0.334578   -0.102056
     11          1           0       -2.161014   -0.830124   -0.898243
     12          8           0        2.248948   -0.459146   -0.159306
     13          1           0        2.476734   -0.064675    0.696558
     14          1           0        2.258484   -1.415329    0.000525
 ---------------------------------------------------------------------

 SCF Done:  E(RB3LYP) =  -269.996274537     A.U. after    1 cycles

 The electronic state is 1-A.
 Alpha  occ. eigenvalues --  -19.24321 -19.17790 -10.31046 -10.27564 -10.20452
 Alpha  occ. eigenvalues --   -1.10058  -1.02610  -0.82538  -0.73095  -0.62195
 Alpha  occ. eigenvalues --   -0.57189  -0.53926  -0.49849  -0.48664  -0.44167
 Alpha  occ. eigenvalues --   -0.42427  -0.40497  -0.40005  -0.39344  -0.35910
 Alpha  occ. eigenvalues --   -0.32819
 Alpha virt. eigenvalues --   -0.07905  -0.01065   0.00338   0.01597   0.02046
 Alpha virt. eigenvalues --    0.04315   0.04751   0.05333   0.05849   0.06267
 Alpha virt. eigenvalues --    0.08054   0.08991   0.10529   0.11361   0.12813

 Mulliken atomic charges:
              1
     1  C    0.403872
     2  C   -0.316794
     3  H    0.290226
     4  H    0.245990
     5  H    0.237587
     6  C   -0.675405
     7  H    0.226055
     8  H    0.219472
     9  H    0.222666
    10  O   -0.404073
    11  H    0.471949
    12  O   -0.765167
    13  H    0.424983
    14  H    0.418639
 Sum of Mulliken atomic charges =   1.00000

 Dipole moment (field-independent basis, Debye):
    X=             -0.4705    Y=             -2.5498    Z=              0.2562  Tot=              2.6055
 Quadrupole moment (field-independent basis, Debye-Ang):
   XX=            -25.2728   YY=            -19.7661   ZZ=            -25.0125
   XY=              1.3865   XZ=              8.8317   YZ=              0.7378

  Exact polarizability:  73.548   4.256  63.346   0.647  -0.501  54.404
 Approx polarizability:  76.954   4.619  61.106   0.495  -0.265  54.269

 ******    1 imaginary frequencies (negative Signs) ******

                     1                      2                      3
                     A                      A                      A
 Frequencies --  -269.7387                98.3289               126.1330
 Red. masses --     6.8477                 2.0794                 2.5218
 Frc consts  --     0.2935                 0.0118                 0.0236
 IR Inten    --   386.8242                45.4327                 1.3907

                     4                      5                      6
                     A                      A                      A
 Frequencies --   153.0707               168.6870               192.3504
 Red. masses --     1.1914                 1.3162                 7.0663
 Frc consts  --     0.0164                 0.0221                 0.1540
 IR Inten    --   153.3855                 4.2768                 6.9442

                     7                      8                      9
                     A                      A                      A
 Frequencies --   299.0853               355.8653               376.9991
 Red. masses --     2.3731                 1.1106                 1.0999
 Frc consts  --     0.1251                 0.0829                 0.0921
 IR Inten    --     4.7123               242.2596               161.9361

                    10                     11                     12
                     A                      A                      A
 Frequencies --   403.4376               635.6840               839.9085
 Red. masses --     1.9008                 1.1101                 2.6652
 Frc consts  --     0.1823                 0.2643                 1.1078
 IR Inten    --    25.8436               174.8738                88.8034

                    13                     14                     15
                     A                      A                      A
 Frequencies --   905.1597               941.4376               981.4537
 Red. masses --     1.9102                 1.2229                 1.5663
 Frc consts  --     0.9221                 0.6386                 0.8889
 IR Inten    --    32.7351                29.8169                25.9442

                    16                     17                     18
                     A                      A                      A
 Frequencies --  1048.0754              1080.4389              1217.7709
 Red. masses --     1.1125                 1.3113                 1.6229
 Frc consts  --     0.7200                 0.9019                 1.4180
 IR Inten    --   105.2280                26.7639                 9.1444

                    19                     20                     21
                     A                      A                      A
 Frequencies --  1227.3218              1300.7819              1307.9952
 Red. masses --     1.5595                 1.2637                 1.2950
 Frc consts  --     1.3840                 1.2598                 1.3054
 IR Inten    --     5.1684                48.5948                19.1062

                    22                     23                     24
                     A                      A                      A
 Frequencies --  1374.8740              1407.0617              1439.1591
 Red. masses --     1.2088                 1.2850                 1.0876
 Frc consts  --     1.3462                 1.4989                 1.3272
 IR Inten    --    56.6607                23.1269                22.8643

                    25                     26                     27
                     A                      A                      A
 Frequencies --  1484.8562              1514.5748              1584.1090
 Red. masses --     1.1988                 1.5049                 1.0806
 Frc consts  --     1.5573                 2.0339                 1.5976
 IR Inten    --    16.2094                17.6803               157.4475

                    28                     29                     30
                     A                      A                      A
 Frequencies --  3055.9247              3117.1362              3160.6233
 Red. masses --     1.0375                 1.0966                 1.0568
 Frc consts  --     5.7085                 6.2781                 6.2200
 IR Inten    --     5.0667                 1.9450                 3.1210

                    31                     32                     33
                     A                      A                      A
 Frequencies --  3170.2511              3242.0240              3257.2651
 Red. masses --     1.1063                 1.0988                 1.1152
 Frc consts  --     6.5512                 6.8048                 6.9713
 IR Inten    --     7.5336                 3.0299                 0.7577

                    34                     35                     36
                     A                      A                      A
 Frequencies --  3713.7425              3765.8733              3860.2242
 Red. masses --     1.0669                 1.0459                 1.0820
 Frc consts  --     8.6693                 8.7391                 9.4993
 IR Inten    --   356.4462                65.6686               171.8435

 - Thermochemistry -
 -------------------
 Temperature   298.150 Kelvin.  Pressure   1.00000 Atm.
 Atom     1 has atomic number  6 and mass  12.00000

 Molecular mass:    77.06025 amu.
 Principal axes and moments of inertia in atomic units:
                           1         2         3
     Eigenvalues --   273.58312 617.49979 806.51764
           X            0.99984  -0.00046   0.01765
           Y            0.00033   0.99997   0.00726
           Z           -0.01766  -0.00725   0.99982
 This molecule is an asymmetric top.
 Rotational symmetry number  1.
 Rotational temperatures (Kelvin)      0.31659     0.14027     0.10739
 Rotational constants (GHZ):           6.59668     2.92266     2.23770
    1 imaginary frequencies ignored.
 Zero-point vibrational energy     315860.1 (Joules/Mol)
                                   75.49237 (Kcal/Mol)
 Warning -- explicit consideration of   9 degrees of freedom as
           vibrations may cause significant error
 Vibrational temperatures:    141.47   181.48   220.23   242.70   276.75
          (Kelvin)            430.32   512.01   542.42   580.46   914.61
                             1208.44  1302.32  1354.52  1412.09  1507.94
                             1554.51  1752.10  1765.84  1871.53  1881.91
                             1978.13  2024.45  2070.63  2136.37  2179.13
                             2279.18  4396.79  4484.86  4547.43  4561.28
                             4664.54  4686.47  5343.24  5418.25  5553.99

 Zero-point correction=                           0.120305 (Hartree/Particle)
 Thermal correction to Energy=                    0.128291
 Thermal correction to Enthalpy=                  0.129235
 Thermal correction to Gibbs Free Energy=         0.088857
 Sum of electronic and zero-point Energies=           -269.875970
 Sum of electronic and thermal Energies=              -269.867984
 Sum of electronic and thermal Enthalpies=            -269.867040
 Sum of electronic and thermal Free Energies=         -269.907417

                     E (Thermal)             CV                S
                      KCal/Mol        Cal/Mol-Kelvin    Cal/Mol-Kelvin
 Total                   80.504             26.387             84.981
 Electronic               0.000              0.000              0.000
 Translational            0.889              2.981             38.941
 Rotational               0.889              2.981             26.413
 Vibrational             78.726             20.425             19.627
 Vibration     1          0.604              1.950              3.487
 Vibration     2          0.611              1.927              3.004
 Vibration     3          0.619              1.899              2.634
 Vibration     4          0.625              1.881              2.450
 Vibration     5          0.634              1.850              2.205
 Vibration     6          0.692              1.675              1.422
 Vibration     7          0.731              1.563              1.140
 Vibration     8          0.748              1.519              1.051
 Vibration     9          0.769              1.463              0.950

 Normal termination of Gaussian 09 at Thu Apr 26 15:49:41 2018.
