 Gaussian 09, Revision B.01,
 Gaussian 09:  EM64L-G09RevB.01 12-Aug-2010

 ----------------------------------------------------------------------
 # scrf=(smd,solvent=water) opt=(ts,noeigen,calcfc) freq b3lyp/6-31++g(
 d,p)
 ----------------------------------------------------------------------

 -----------
 OH-BACK-MID
 -----------
 Symbolic Z-matrix:
 Charge = -1 Multiplicity = 1

 SCF Done:  E(RB3LYP) =  -269.056234780     A.U. after   13 cycles
 SCF Done:  E(RB3LYP) =  -269.056868023     A.U. after   11 cycles
 SCF Done:  E(RB3LYP) =  -269.057314968     A.U. after   11 cycles
 SCF Done:  E(RB3LYP) =  -269.057518524     A.U. after   10 cycles
 SCF Done:  E(RB3LYP) =  -269.057585515     A.U. after   10 cycles
 SCF Done:  E(RB3LYP) =  -269.057601717     A.U. after   10 cycles
 SCF Done:  E(RB3LYP) =  -269.057601704     A.U. after    9 cycles
 SCF Done:  E(RB3LYP) =  -269.057601103     A.U. after    9 cycles
 SCF Done:  E(RB3LYP) =  -269.057601288     A.U. after    8 cycles
 Optimization completed.
    -- Stationary point found.
 Normal termination of Gaussian 09 at Thu Apr 26 15:41:38 2018.

 ----------------------------------------------------------------------
 #N Geom=AllCheck Guess=TCheck SCRF=Check GenChk RB3LYP/6-31++G(d,p) Fr
 eq
 ----------------------------------------------------------------------

 OH-BACK-MID
 -----------
 Redundant internal coordinates taken from checkpoint file:
 OH-mid.chk
 Charge = -1 Multiplicity = 1

                         Standard orientation:
 ---------------------------------------------------------------------
 Center     Atomic      Atomic             Coordinates (Angstroms)
 Number     Number       Type             X           Y           Z
 ---------------------------------------------------------------------
      1          6           0       -0.012693    0.126253   -0.343222
      2          6           0       -0.766768   -0.888626    0.379252
      3          8           0       -1.847053   -0.212236   -0.241986
      4          1           0        0.162411   -0.057080   -1.394054
      5          1           0       -0.745442   -0.815016    1.474575
      6          1           0       -0.625236   -1.928260    0.057565
      7          6           0        0.177715    1.516579    0.177833
      8          1           0        1.209932    1.833135    0.008632
      9          1           0       -0.469414    2.222903   -0.352542
     10          1           0       -0.039498    1.574632    1.248443
     11          8           0        2.116291   -0.522539   -0.037673
     12          1           0        1.963820   -1.477352   -0.088522
 ---------------------------------------------------------------------

 SCF Done:  E(RB3LYP) =  -269.057601288     A.U. after    1 cycles

 The electronic state is 1-A.
 Alpha  occ. eigenvalues --  -19.11231 -19.07448 -10.24701 -10.21752 -10.17727
 Alpha  occ. eigenvalues --   -0.96918  -0.87905  -0.75215  -0.65584  -0.57285
 Alpha  occ. eigenvalues --   -0.47681  -0.43842  -0.41208  -0.39140  -0.36479
 Alpha  occ. eigenvalues --   -0.36235  -0.35310  -0.28040  -0.24436  -0.23763
 Alpha  occ. eigenvalues --   -0.22098
 Alpha virt. eigenvalues --   -0.00694   0.00353   0.02200   0.02598   0.03509
 Alpha virt. eigenvalues --    0.05450   0.06182   0.06557   0.07167   0.09876
 Alpha virt. eigenvalues --    0.10298   0.11833   0.13333   0.14268   0.14429

 Mulliken atomic charges:
              1
     1  C    0.319888
     2  C   -0.195277
     3  O   -0.741971
     4  H    0.226034
     5  H    0.143777
     6  H    0.144817
     7  C   -0.663675
     8  H    0.182492
     9  H    0.177823
    10  H    0.193636
    11  O   -1.116609
    12  H    0.329064
 Sum of Mulliken atomic charges =  -1.00000

 Dipole moment (field-independent basis, Debye):
    X=             -2.5345    Y=              0.8869    Z=              0.6644  Tot=              2.7662
 Quadrupole moment (field-independent basis, Debye-Ang):
   XX=            -69.2564   YY=            -29.8405   ZZ=            -34.3143
   XY=              1.5286   XZ=             -2.6804   YZ=             -0.3634

  Exact polarizability: 120.114  -3.479  73.383   1.434  -2.258  68.251
 Approx polarizability: 118.663  -2.577  68.530   2.438  -2.521  63.784

 ******    1 imaginary frequencies (negative Signs) ******

                     1                      2                      3
                     A                      A                      A
 Frequencies --  -517.4385               146.3091               190.0034
 Red. masses --    10.1300                 1.2249                 2.9553
 Frc consts  --     1.5980                 0.0154                 0.0629
 IR Inten    --  1553.2008                 9.6676                55.3312

                     4                      5                      6
                     A                      A                      A
 Frequencies --   191.3250               271.0915               290.3824
 Red. masses --     3.1195                 4.0257                 1.2836
 Frc consts  --     0.0673                 0.1743                 0.0638
 IR Inten    --    72.2696                33.4206               188.7494

                     7                      8                      9
                     A                      A                      A
 Frequencies --   322.0705               411.5724               496.2482
 Red. masses --     2.7329                 2.0911                 1.1432
 Frc consts  --     0.1670                 0.2087                 0.1659
 IR Inten    --    10.9860                 7.4208               145.8722

                    10                     11                     12
                     A                      A                      A
 Frequencies --   876.7152               923.5907               991.0997
 Red. masses --     2.1855                 1.0920                 1.2010
 Frc consts  --     0.9897                 0.5488                 0.6951
 IR Inten    --    17.4988                 5.3628                 9.0260

                    13                     14                     15
                     A                      A                      A
 Frequencies --  1029.4611              1109.3730              1142.3726
 Red. masses --     1.3952                 3.0265                 1.2978
 Frc consts  --     0.8712                 2.1945                 0.9979
 IR Inten    --    11.1336               234.5656                 1.2248

                    16                     17                     18
                     A                      A                      A
 Frequencies --  1193.7680              1240.3509              1305.8558
 Red. masses --     1.5698                 1.7246                 1.3202
 Frc consts  --     1.3180                 1.5633                 1.3264
 IR Inten    --     4.0560                35.1275                 3.6934

                    19                     20                     21
                     A                      A                      A
 Frequencies --  1391.5216              1422.4073              1460.8531
 Red. masses --     1.2558                 1.5147                 1.0497
 Frc consts  --     1.4327                 1.8056                 1.3198
 IR Inten    --     8.4766                35.9250                 3.2542

                    22                     23                     24
                     A                      A                      A
 Frequencies --  1482.2681              1526.6635              3012.3923
 Red. masses --     1.1743                 1.3951                 1.0538
 Frc consts  --     1.5201                 1.9157                 5.6342
 IR Inten    --    11.2393                 7.5780               121.1183

                    25                     26                     27
                     A                      A                      A
 Frequencies --  3054.5639              3062.0812              3119.9599
 Red. masses --     1.0372                 1.1129                 1.1009
 Frc consts  --     5.7017                 6.1479                 6.3141
 IR Inten    --    17.2643               100.7135                26.7897

                    28                     29                     30
                     A                      A                      A
 Frequencies --  3140.6377              3264.6504              3806.1792
 Red. masses --     1.1023                 1.0920                 1.0670
 Frc consts  --     6.4060                 6.8570                 9.1074
 IR Inten    --    22.3771                10.5265                 1.8048

 - Thermochemistry -
 -------------------
 Temperature   298.150 Kelvin.  Pressure   1.00000 Atm.
 Atom     1 has atomic number  6 and mass  12.00000

 Molecular mass:    75.04460 amu.
 Principal axes and moments of inertia in atomic units:
                           1         2         3
     Eigenvalues --   250.42318 537.45525 714.25023
           X            0.99994   0.00050  -0.01061
           Y           -0.00048   1.00000   0.00225
           Z            0.01061  -0.00225   0.99994
 This molecule is an asymmetric top.
 Rotational symmetry number  1.
 Rotational temperatures (Kelvin)      0.34587     0.16116     0.12127
 Rotational constants (GHZ):           7.20677     3.35794     2.52676
    1 imaginary frequencies ignored.
 Zero-point vibrational energy     250472.7 (Joules/Mol)
                                   59.86442 (Kcal/Mol)
 Warning -- explicit consideration of   8 degrees of freedom as
           vibrations may cause significant error
 Vibrational temperatures:    210.51   273.37   275.27   390.04   417.80
          (Kelvin)            463.39   592.16   713.99  1261.40  1328.84
                             1425.97  1481.16  1596.14  1643.62  1717.56
                             1784.59  1878.83  2002.09  2046.52  2101.84
                             2132.65  2196.53  4334.16  4394.83  4405.65
                             4488.92  4518.67  4697.10  5476.24

 Zero-point correction=                           0.095400 (Hartree/Particle)
 Thermal correction to Energy=                    0.102138
 Thermal correction to Enthalpy=                  0.103083
 Thermal correction to Gibbs Free Energy=         0.065647
 Sum of electronic and zero-point Energies=           -268.962201
 Sum of electronic and thermal Energies=              -268.955463
 Sum of electronic and thermal Enthalpies=            -268.954519
 Sum of electronic and thermal Free Energies=         -268.991954

                     E (Thermal)             CV                S
                      KCal/Mol        Cal/Mol-Kelvin    Cal/Mol-Kelvin
 Total                   64.093             22.554             78.789
 Electronic               0.000              0.000              0.000
 Translational            0.889              2.981             38.862
 Rotational               0.889              2.981             26.067
 Vibrational             62.315             16.593             13.861
 Vibration     1          0.617              1.907              2.720
 Vibration     2          0.633              1.854              2.228
 Vibration     3          0.634              1.852              2.215
 Vibration     4          0.675              1.726              1.589
 Vibration     5          0.686              1.692              1.472
 Vibration     6          0.707              1.631              1.300
 Vibration     7          0.776              1.445              0.921
 Vibration     8          0.852              1.258              0.668

 Optimization completed.
    -- Stationary point found.
 Normal termination of Gaussian 09 at Thu Apr 26 15:41:57 2018.
