 Gaussian 09, Revision B.01,
 Gaussian 09:  EM64L-G09RevB.01 12-Aug-2010

 ----------------------------------------------------------------------
 # scrf=(smd,solvent=water) opt=(ts,noeigen,calcfc) freq b3lyp/6-31++g(
 d,p)
 ----------------------------------------------------------------------

 ------------
 OH-BACK-TERM
 ------------
 Symbolic Z-matrix:
 Charge = -1 Multiplicity = 1

 SCF Done:  E(RB3LYP) =  -269.063158387     A.U. after   13 cycles
 SCF Done:  E(RB3LYP) =  -269.062720389     A.U. after   11 cycles
 SCF Done:  E(RB3LYP) =  -269.062408239     A.U. after   11 cycles
 SCF Done:  E(RB3LYP) =  -269.062422299     A.U. after   11 cycles
 SCF Done:  E(RB3LYP) =  -269.062329632     A.U. after   11 cycles
 SCF Done:  E(RB3LYP) =  -269.061514614     A.U. after   13 cycles
 SCF Done:  E(RB3LYP) =  -269.061733286     A.U. after   11 cycles
 SCF Done:  E(RB3LYP) =  -269.062190555     A.U. after   12 cycles
 SCF Done:  E(RB3LYP) =  -269.062372364     A.U. after   11 cycles
 SCF Done:  E(RB3LYP) =  -269.062411497     A.U. after   10 cycles
 SCF Done:  E(RB3LYP) =  -269.062406943     A.U. after    9 cycles
 SCF Done:  E(RB3LYP) =  -269.062253768     A.U. after   13 cycles
 SCF Done:  E(RB3LYP) =  -269.062430442     A.U. after   11 cycles
 SCF Done:  E(RB3LYP) =  -269.062452021     A.U. after    9 cycles
 SCF Done:  E(RB3LYP) =  -269.062451981     A.U. after    8 cycles
 SCF Done:  E(RB3LYP) =  -269.062452800     A.U. after    8 cycles
 Optimization completed.
    -- Stationary point found.
 Normal termination of Gaussian 09 at Thu Apr 26 15:43:41 2018.

 ----------------------------------------------------------------------
 #N Geom=AllCheck Guess=TCheck SCRF=Check GenChk RB3LYP/6-31++G(d,p) Fr
 eq
 ----------------------------------------------------------------------

 OH-BACK-TERM
 ------------
 Redundant internal coordinates taken from checkpoint file:
 OH-term.chk
 Charge = -1 Multiplicity = 1

                         Standard orientation:
 ---------------------------------------------------------------------
 Center     Atomic      Atomic             Coordinates (Angstroms)
 Number     Number       Type             X           Y           Z
 ---------------------------------------------------------------------
      1          6           0        0.637582    0.014479    0.427926
      2          6           0       -0.412573   -0.766400   -0.216737
      3          8           0        1.365448   -1.105233   -0.061738
      4          1           0        0.581944    0.046004    1.524301
      5          1           0       -0.533080   -0.693270   -1.287145
      6          1           0       -0.851155   -1.602652    0.305247
      7          6           0        1.026347    1.361084   -0.147327
      8          1           0        1.027079    1.333067   -1.242619
      9          1           0        0.327156    2.138757    0.181385
     10          1           0        2.029193    1.642038    0.194612
     11          8           0       -2.325980    0.259800   -0.058858
     12          1           0       -2.405014    0.244544    0.905815
 ---------------------------------------------------------------------

 SCF Done:  E(RB3LYP) =  -269.062452800     A.U. after    1 cycles

 The electronic state is 1-A.
 Alpha  occ. eigenvalues --  -19.11580 -19.07742 -10.23393 -10.22561 -10.16802
 Alpha  occ. eigenvalues --   -0.97643  -0.88204  -0.72974  -0.67300  -0.56550
 Alpha  occ. eigenvalues --   -0.47880  -0.43798  -0.41259  -0.38066  -0.37490
 Alpha  occ. eigenvalues --   -0.35352  -0.33994  -0.29826  -0.24613  -0.24080
 Alpha  occ. eigenvalues --   -0.22123
 Alpha virt. eigenvalues --   -0.00056   0.00472   0.02403   0.02628   0.04838
 Alpha virt. eigenvalues --    0.05434   0.06002   0.06550   0.07927   0.09130
 Alpha virt. eigenvalues --    0.10509   0.11412   0.12261   0.13676   0.14789

 Mulliken atomic charges:
              1
     1  C    0.195017
     2  C   -0.205954
     3  O   -0.727756
     4  H    0.144864
     5  H    0.212052
     6  H    0.209246
     7  C   -0.554624
     8  H    0.163398
     9  H    0.156720
    10  H    0.169091
    11  O   -1.098343
    12  H    0.336289
 Sum of Mulliken atomic charges =  -1.00000

 Dipole moment (field-independent basis, Debye):
    X=              3.9557    Y=              1.7615    Z=              2.3884  Tot=              4.9452
 Quadrupole moment (field-independent basis, Debye-Ang):
   XX=            -63.8187   YY=            -39.3885   ZZ=            -31.5403
   XY=             10.4102   XZ=             -3.7460   YZ=              0.3526

  Exact polarizability: 116.338 -13.629  76.987  -0.227   2.468  66.679
 Approx polarizability: 112.468 -16.392  72.313   0.008   2.692  63.968

 ******    1 imaginary frequencies (negative Signs) ******

                     1                      2                      3
                     A                      A                      A
 Frequencies --  -551.6053               153.3946               196.2482
 Red. masses --    11.9075                 3.2121                 1.7007
 Frc consts  --     2.1347                 0.0445                 0.0386
 IR Inten    --  1719.2731                 6.1826                34.8499

                     4                      5                      6
                     A                      A                      A
 Frequencies --   211.0595               250.0839               301.5086
 Red. masses --     1.1633                 1.4542                 8.4632
 Frc consts  --     0.0305                 0.0536                 0.4533
 IR Inten    --   204.5052                19.9130                 9.9839

                     7                      8                      9
                     A                      A                      A
 Frequencies --   394.3203               437.8159               534.5004
 Red. masses --     2.3189                 2.5347                 1.1411
 Frc consts  --     0.2124                 0.2863                 0.1921
 IR Inten    --    26.4663                12.0986               129.0989

                    10                     11                     12
                     A                      A                      A
 Frequencies --   829.1879               885.1331               918.8235
 Red. masses --     1.6065                 1.5642                 2.0948
 Frc consts  --     0.6508                 0.7220                 1.0420
 IR Inten    --     9.2393                60.3486                62.4626

                    13                     14                     15
                     A                      A                      A
 Frequencies --  1000.6335              1068.2506              1096.9032
 Red. masses --     1.1169                 1.2575                 1.5758
 Frc consts  --     0.6589                 0.8455                 1.1171
 IR Inten    --    14.3066                 2.4871                94.6256

                    16                     17                     18
                     A                      A                      A
 Frequencies --  1164.3921              1216.4297              1287.8632
 Red. masses --     1.9717                 1.5158                 1.3474
 Frc consts  --     1.5751                 1.3215                 1.3167
 IR Inten    --    20.6980                22.5034                 0.3847

                    19                     20                     21
                     A                      A                      A
 Frequencies --  1380.9695              1412.4629              1454.8154
 Red. masses --     1.2219                 1.3646                 1.1510
 Frc consts  --     1.3729                 1.6040                 1.4353
 IR Inten    --     2.8585                24.8646                23.2632

                    22                     23                     24
                     A                      A                      A
 Frequencies --  1471.9840              1487.7291              3025.1571
 Red. masses --     1.0485                 1.6033                 1.0820
 Frc consts  --     1.3385                 2.0908                 5.8340
 IR Inten    --     8.6275                35.1402               100.3987

                    25                     26                     27
                     A                      A                      A
 Frequencies --  3033.8030              3103.6536              3110.6948
 Red. masses --     1.0383                 1.1021                 1.1033
 Frc consts  --     5.6303                 6.2550                 6.2904
 IR Inten    --    30.0261                46.3595                64.4733

                    28                     29                     30
                     A                      A                      A
 Frequencies --  3221.1319              3346.0233              3810.8663
 Red. masses --     1.0525                 1.1265                 1.0673
 Frc consts  --     6.4342                 7.4310                 9.1321
 IR Inten    --     6.5599                 3.0478                 2.7946

 - Thermochemistry -
 -------------------
 Temperature   298.150 Kelvin.  Pressure   1.00000 Atm.
 Atom     1 has atomic number  6 and mass  12.00000

 Molecular mass:    75.04460 amu.
 Principal axes and moments of inertia in atomic units:
                           1         2         3
     Eigenvalues --   254.30178 566.39223 751.62022
           X            0.99713   0.07468  -0.01233
           Y           -0.07475   0.99718  -0.00590
           Z            0.01185   0.00680   0.99991
 This molecule is an asymmetric top.
 Rotational symmetry number  1.
 Rotational temperatures (Kelvin)      0.34059     0.15292     0.11524
 Rotational constants (GHZ):           7.09685     3.18638     2.40113
    1 imaginary frequencies ignored.
 Zero-point vibrational energy     250054.4 (Joules/Mol)
                                   59.76445 (Kcal/Mol)
 Warning -- explicit consideration of   8 degrees of freedom as
           vibrations may cause significant error
 Vibrational temperatures:    220.70   282.36   303.67   359.81   433.80
          (Kelvin)            567.34   629.92   769.03  1193.01  1273.51
                             1321.98  1439.69  1536.97  1578.20  1675.30
                             1750.17  1852.95  1986.90  2032.22  2093.15
                             2117.85  2140.51  4352.52  4364.96  4465.46
                             4475.59  4634.48  4814.18  5482.98

 Zero-point correction=                           0.095241 (Hartree/Particle)
 Thermal correction to Energy=                    0.101861
 Thermal correction to Enthalpy=                  0.102805
 Thermal correction to Gibbs Free Energy=         0.065606
 Sum of electronic and zero-point Energies=           -268.967212
 Sum of electronic and thermal Energies=              -268.960592
 Sum of electronic and thermal Enthalpies=            -268.959647
 Sum of electronic and thermal Free Energies=         -268.996847

                     E (Thermal)             CV                S
                      KCal/Mol        Cal/Mol-Kelvin    Cal/Mol-Kelvin
 Total                   63.919             22.615             78.294
 Electronic               0.000              0.000              0.000
 Translational            0.889              2.981             38.862
 Rotational               0.889              2.981             26.185
 Vibrational             62.141             16.653             13.247
 Vibration     1          0.619              1.899              2.630
 Vibration     2          0.636              1.845              2.168
 Vibration     3          0.643              1.824              2.034
 Vibration     4          0.663              1.763              1.730
 Vibration     5          0.693              1.671              1.409
 Vibration     6          0.761              1.482              0.984
 Vibration     7          0.798              1.388              0.834
 Vibration     8          0.889              1.174              0.577

 Optimization completed.
    -- Stationary point found.
 Normal termination of Gaussian 09 at Thu Apr 26 15:44:09 2018.
