 Gaussian 09, Revision B.01,
 Gaussian 09:  EM64L-G09RevB.01 12-Aug-2010

 ----------------------------------------------------------------------
 # field=z-50 freq opt=(ts,noeigen,calcall,z-matrix) nosymm rb3lyp/6-31
 ++g(d,p)
 ----------------------------------------------------------------------

 -----------
 OH-BACK-MID
 -----------
 Symbolic Z-matrix:
 Charge =  0 Multiplicity = 1

 SCF Done:  E(RB3LYP) =  -269.485520337     A.U. after   16 cycles
 SCF Done:  E(RB3LYP) =  -269.489043430     A.U. after   13 cycles
 SCF Done:  E(RB3LYP) =  -269.491920588     A.U. after   13 cycles
 SCF Done:  E(RB3LYP) =  -269.490994914     A.U. after   13 cycles
 SCF Done:  E(RB3LYP) =  -269.490021138     A.U. after   14 cycles
 SCF Done:  E(RB3LYP) =  -269.489865686     A.U. after   13 cycles
 SCF Done:  E(RB3LYP) =  -269.490008724     A.U. after   13 cycles
 SCF Done:  E(RB3LYP) =  -269.490157067     A.U. after   12 cycles
 SCF Done:  E(RB3LYP) =  -269.490157443     A.U. after   12 cycles
 Optimization completed.
    -- Stationary point found.
 ******    1 imaginary frequencies (negative Signs) ******
    1 imaginary frequencies ignored.
 Normal termination of Gaussian 09 at Tue Mar  6 17:12:21 2018.

 ----------------------------------------------------------------------
 #N Geom=AllCheck Guess=TCheck SCRF=Check GenChk RB3LYP/6-31++G(d,p) Fr
 eq
 ----------------------------------------------------------------------

 OH-BACK-MID
 -----------
 Z-Matrix taken from the checkpoint file:
 H2O-mid-field.chk
 Charge =  0 Multiplicity = 1

                          Input orientation:
 ---------------------------------------------------------------------
 Center     Atomic      Atomic             Coordinates (Angstroms)
 Number     Number       Type             X           Y           Z
 ---------------------------------------------------------------------
      1          6           0        0.000000    0.000000    0.000000
      2          8           0        0.000000    0.000000    2.285847
      3          1           0        1.780761    0.000000   -1.160729
      4          1           0        1.650376   -1.382999   -0.043796
      5          1           0       -0.737920   -0.784664    0.157363
      6          1           0       -1.283562    1.336792   -0.978518
      7          1           0        0.272683    2.077645   -0.421383
      8          1           0        0.961634    0.243679    1.981107
      9          1           0       -1.040404    1.702898    0.722675
     10          1           0        0.047464   -0.803280    2.824536
     11          6           0        1.451767   -0.298573   -0.138176
     12          6           0       -0.521629    1.368948   -0.183241
     13          8           0        1.979952    0.476789    0.867838
 ---------------------------------------------------------------------

 SCF Done:  E(RB3LYP) =  -269.490157443     A.U. after    1 cycles

 Alpha  occ. eigenvalues --  -19.14805 -19.08873 -10.29530 -10.24007 -10.21429
 Alpha  occ. eigenvalues --   -0.99588  -0.94864  -0.80615  -0.69009  -0.59232
 Alpha  occ. eigenvalues --   -0.51911  -0.50191  -0.45515  -0.44453  -0.41046
 Alpha  occ. eigenvalues --   -0.40171  -0.38349  -0.35378  -0.30931  -0.22827
 Alpha  occ. eigenvalues --   -0.22468
 Alpha virt. eigenvalues --   -0.11165  -0.02678  -0.00074   0.00067   0.02076
 Alpha virt. eigenvalues --    0.03573   0.04697   0.05615   0.06704   0.07597
 Alpha virt. eigenvalues --    0.08584   0.10218   0.11204   0.11656   0.11743

 Mulliken atomic charges:
              1
     1  C    0.403740
     2  O   -0.710877
     3  H    0.101211
     4  H    0.124215
     5  H    0.207940
     6  H    0.139082
     7  H    0.218905
     8  H    0.432312
     9  H    0.235470
    10  H    0.370317
    11  C   -0.256650
    12  C   -0.671350
    13  O   -0.594314
 Sum of Mulliken atomic charges =   0.00000

 Dipole moment (field-independent basis, Debye):
    X=             -3.2987    Y=             -1.9240    Z=             -1.2494  Tot=              4.0180
 Quadrupole moment (field-independent basis, Debye-Ang):
   XX=            -40.4179   YY=            -30.3884   ZZ=            -31.4812
   XY=             -3.3858   XZ=             -1.8738   YZ=             -4.8888

  Exact polarizability:  64.802  -3.903  49.387   0.623  -3.001  64.069
 Approx polarizability: 109.644   3.086  66.025  10.643  -0.413  95.093

 ******    1 imaginary frequencies (negative Signs) ******

                     1                      2                      3
                     A                      A                      A
 Frequencies --  -426.7227               150.6778               189.3441
 Red. masses --     3.2924                 1.7351                 1.5352
 Frc consts  --     0.3532                 0.0232                 0.0324
 IR Inten    --    35.4361                 4.0680                 3.0807

                     4                      5                      6
                     A                      A                      A
 Frequencies --   228.8055               291.0001               353.7941
 Red. masses --     2.0888                 3.7507                 3.8618
 Frc consts  --     0.0644                 0.1871                 0.2848
 IR Inten    --     8.5083                30.3673                85.6569

                     7                      8                      9
                     A                      A                      A
 Frequencies --   422.4955               501.6691               582.6343
 Red. masses --     2.2720                 1.2211                 1.1439
 Frc consts  --     0.2389                 0.1811                 0.2288
 IR Inten    --    16.7700               118.7756                91.5243

                    10                     11                     12
                     A                      A                      A
 Frequencies --   828.5827               875.1938               911.3048
 Red. masses --     1.6471                 1.3024                 1.6771
 Frc consts  --     0.6663                 0.5878                 0.8206
 IR Inten    --     8.1433                 4.4677                11.1411

                    13                     14                     15
                     A                      A                      A
 Frequencies --   985.1812              1067.7446              1096.9832
 Red. masses --     1.4767                 1.8551                 2.1645
 Frc consts  --     0.8444                 1.2461                 1.5347
 IR Inten    --    14.6254               255.8508                 4.4046

                    16                     17                     18
                     A                      A                      A
 Frequencies --  1140.5305              1165.8718              1222.2541
 Red. masses --     1.4442                 1.7022                 1.3776
 Frc consts  --     1.1068                 1.3632                 1.2125
 IR Inten    --   117.2554                 6.8963                 4.4832

                    19                     20                     21
                     A                      A                      A
 Frequencies --  1335.8048              1377.6592              1395.4440
 Red. masses --     1.2496                 1.2374                 1.3520
 Frc consts  --     1.3138                 1.3837                 1.5511
 IR Inten    --    15.7827                10.7118                32.1733

                    22                     23                     24
                     A                      A                      A
 Frequencies --  1451.1942              1470.6093              1502.3950
 Red. masses --     1.1477                 1.1148                 1.1716
 Frc consts  --     1.4241                 1.4205                 1.5581
 IR Inten    --     9.4480                 2.4867                 8.0074

                    25                     26                     27
                     A                      A                      A
 Frequencies --  1594.4688              2470.9245              2833.9951
 Red. masses --     1.0612                 1.0888                 1.0678
 Frc consts  --     1.5895                 3.9165                 5.0528
 IR Inten    --    72.2150               424.3003                96.0769

                    28                     29                     30
                     A                      A                      A
 Frequencies --  2928.7815              3001.4369              3084.5936
 Red. masses --     1.0823                 1.0509                 1.0826
 Frc consts  --     5.4697                 5.5776                 6.0688
 IR Inten    --   111.4145                12.4653                 2.6727

                    31                     32                     33
                     A                      A                      A
 Frequencies --  3157.8220              3181.6805              3823.8239
 Red. masses --     1.0996                 1.0916                 1.0659
 Frc consts  --     6.4604                 6.5106                 9.1827
 IR Inten    --     2.1180                17.5191                90.7407

 - Thermochemistry -
 -------------------
 Temperature   298.150 Kelvin.  Pressure   1.00000 Atm.
 Atom     1 has atomic number  6 and mass  12.00000

 Molecular mass:    76.05243 amu.
 Principal axes and moments of inertia in atomic units:
                           1         2         3
     Eigenvalues --   369.05590 382.72999 583.49854
           X            0.49593   0.81285   0.30549
           Y           -0.37127  -0.11954   0.92080
           Z            0.78499  -0.57007   0.24250
 This molecule is an asymmetric top.
 Rotational symmetry number  1.
 Rotational temperatures (Kelvin)      0.23469     0.22631     0.14844
 Rotational constants (GHZ):           4.89016     4.71544     3.09297
    1 imaginary frequencies ignored.
 Zero-point vibrational energy     278877.6 (Joules/Mol)
                                   66.65336 (Kcal/Mol)
 Warning -- explicit consideration of   8 degrees of freedom as
           vibrations may cause significant error
 Vibrational temperatures:    216.79   272.42   329.20   418.68   509.03
          (Kelvin)            607.88   721.79   838.28  1192.14  1259.21
                             1311.16  1417.45  1536.24  1578.31  1640.97
                             1677.43  1758.55  1921.92  1982.14  2007.73
                             2087.94  2115.88  2161.61  2294.08  3555.10
                             4077.48  4213.86  4318.39  4438.04  4543.40
                             4577.72  5501.62

 Zero-point correction=                           0.106219 (Hartree/Particle)
 Thermal correction to Energy=                    0.112633
 Thermal correction to Enthalpy=                  0.113577
 Thermal correction to Gibbs Free Energy=         0.076901
 Sum of electronic and zero-point Energies=           -269.383939
 Sum of electronic and thermal Energies=              -269.377525
 Sum of electronic and thermal Enthalpies=            -269.376581
 Sum of electronic and thermal Free Energies=         -269.413256

                     E (Thermal)             CV                S
                      KCal/Mol        Cal/Mol-Kelvin    Cal/Mol-Kelvin
 Total                   70.678             22.441             77.191
 Electronic               0.000              0.000              0.000
 Translational            0.889              2.981             38.902
 Rotational               0.889              2.981             25.914
 Vibrational             68.901             16.479             12.375
 Vibration     1          0.618              1.902              2.664
 Vibration     2          0.633              1.855              2.234
 Vibration     3          0.651              1.797              1.888
 Vibration     4          0.687              1.690              1.468
 Vibration     5          0.730              1.567              1.149
 Vibration     6          0.785              1.421              0.884
 Vibration     7          0.857              1.246              0.654
 Vibration     8          0.939              1.069              0.481

 Optimization completed.
    -- Stationary point found.
 Normal termination of Gaussian 09 at Tue Mar  6 17:12:45 2018.
