 Gaussian 09, Revision B.01,
 Gaussian 09:  EM64L-G09RevB.01 12-Aug-2010

 ----------------------------------------------------------------------
 # field=z-50 freq opt=(z-matrix,ts,calcfc,noeigen) nosymm rb3lyp/6-31+
 +g(d,p)
 ----------------------------------------------------------------------

 ------------
 OH-BACK-TERM
 ------------
 Symbolic Z-matrix:
 Charge =  0 Multiplicity = 1

 SCF Done:  E(RB3LYP) =  -269.481816162     A.U. after   15 cycles
 SCF Done:  E(RB3LYP) =  -269.485620396     A.U. after   13 cycles
 SCF Done:  E(RB3LYP) =  -269.483367224     A.U. after   12 cycles
 SCF Done:  E(RB3LYP) =  -269.483983416     A.U. after   13 cycles
 SCF Done:  E(RB3LYP) =  -269.484701331     A.U. after   13 cycles
 SCF Done:  E(RB3LYP) =  -269.484615883     A.U. after   12 cycles
 SCF Done:  E(RB3LYP) =  -269.484454429     A.U. after   13 cycles
 SCF Done:  E(RB3LYP) =  -269.484719682     A.U. after   12 cycles
 SCF Done:  E(RB3LYP) =  -269.485093579     A.U. after   13 cycles
 SCF Done:  E(RB3LYP) =  -269.485105519     A.U. after   12 cycles
 SCF Done:  E(RB3LYP) =  -269.485189534     A.U. after   12 cycles
 SCF Done:  E(RB3LYP) =  -269.485095636     A.U. after   12 cycles
 SCF Done:  E(RB3LYP) =  -269.485194367     A.U. after   12 cycles
 SCF Done:  E(RB3LYP) =  -269.485149989     A.U. after   12 cycles
 SCF Done:  E(RB3LYP) =  -269.485204423     A.U. after   11 cycles
 SCF Done:  E(RB3LYP) =  -269.485205182     A.U. after   11 cycles
 SCF Done:  E(RB3LYP) =  -269.485210095     A.U. after   10 cycles
 SCF Done:  E(RB3LYP) =  -269.485210665     A.U. after   10 cycles
 SCF Done:  E(RB3LYP) =  -269.485210907     A.U. after    9 cycles
 Optimization completed.
    -- Stationary point found.
 Normal termination of Gaussian 09 at Tue Mar  6 17:10:39 2018.

 ----------------------------------------------------------------------
 #N Geom=AllCheck Guess=TCheck SCRF=Check GenChk RB3LYP/6-31++G(d,p) Fr
 eq
 ----------------------------------------------------------------------

 OH-BACK-TERM
 ------------
 Z-Matrix taken from the checkpoint file:
 ts
 Charge =  0 Multiplicity = 1

                          Input orientation:
 ---------------------------------------------------------------------
 Center     Atomic      Atomic             Coordinates (Angstroms)
 Number     Number       Type             X           Y           Z
 ---------------------------------------------------------------------
      1          6           0        0.000000    0.000000    0.000000
      2          8           0        0.000000    0.000000    2.203291
      3          1           0        0.891698    0.000000    2.581682
      4          1           0       -0.221497   -0.969470    1.910366
      5          1           0        1.050715   -0.203552   -0.177424
      6          1           0       -0.282299    1.023874    0.222103
      7          1           0       -2.636786   -0.284834    0.850762
      8          1           0       -2.729169   -0.056319   -0.917869
      9          1           0       -3.032069   -1.657341   -0.195338
     10          1           0       -0.760477   -1.532322   -1.248105
     11          6           0       -2.429592   -0.747923   -0.118632
     12          6           0       -0.947639   -1.113027   -0.235676
     13          8           0       -0.467978   -1.944464    0.767531
 ---------------------------------------------------------------------

 SCF Done:  E(RB3LYP) =  -269.485210907     A.U. after    1 cycles

 Alpha  occ. eigenvalues --  -19.16422 -19.10269 -10.28796 -10.24853 -10.18248
 Alpha  occ. eigenvalues --   -1.01120  -0.96033  -0.76358  -0.70817  -0.58666
 Alpha  occ. eigenvalues --   -0.53072  -0.49162  -0.46768  -0.43524  -0.40224
 Alpha  occ. eigenvalues --   -0.38308  -0.37437  -0.35221  -0.33209  -0.23716
 Alpha  occ. eigenvalues --   -0.23499
 Alpha virt. eigenvalues --   -0.11206  -0.02354  -0.00050   0.00633   0.02630
 Alpha virt. eigenvalues --    0.03959   0.04035   0.05832   0.06901   0.07732
 Alpha virt. eigenvalues --    0.08961   0.10116   0.11000   0.11196   0.12682

 Mulliken atomic charges:
              1
     1  C   -0.227518
     2  O   -0.655357
     3  H    0.377049
     4  H    0.437796
     5  H    0.201950
     6  H    0.201377
     7  H    0.198370
     8  H    0.112912
     9  H    0.169421
    10  H    0.103736
    11  C   -0.531727
    12  C    0.178503
    13  O   -0.566511
 Sum of Mulliken atomic charges =   0.00000

 Dipole moment (field-independent basis, Debye):
    X=              1.5088    Y=              2.7973    Z=             -0.8332  Tot=              3.2857
 Quadrupole moment (field-independent basis, Debye-Ang):
   XX=            -29.7576   YY=            -40.6296   ZZ=            -31.9921
   XY=             -0.1631   XZ=              3.9947   YZ=              1.4596

  Exact polarizability:  54.247   6.253  57.048   6.442   2.090  62.637
 Approx polarizability:  67.647  13.740 104.601   3.684  -5.222  93.225

 ******    1 imaginary frequencies (negative Signs) ******

                     1                      2                      3
                     A                      A                      A
 Frequencies --  -520.7581               110.0862               239.3225
 Red. masses --     3.3633                 3.8057                 1.0489
 Frc consts  --     0.5374                 0.0272                 0.0354
 IR Inten    --    53.3044                 1.8833                 1.5123

                     4                      5                      6
                     A                      A                      A
 Frequencies --   342.6470               380.1394               414.2824
 Red. masses --     2.1566                 4.1533                 4.5540
 Frc consts  --     0.1492                 0.3536                 0.4605
 IR Inten    --     9.1239               126.4009                12.3197

                     7                      8                      9
                     A                      A                      A
 Frequencies --   460.2712               514.4044               578.2094
 Red. masses --     2.1723                 1.2546                 1.1671
 Frc consts  --     0.2711                 0.1956                 0.2299
 IR Inten    --    30.5043                82.9309                87.9106

                    10                     11                     12
                     A                      A                      A
 Frequencies --   741.5330               836.8216               901.8285
 Red. masses --     1.1237                 2.3372                 1.3463
 Frc consts  --     0.3640                 0.9643                 0.6451
 IR Inten    --     3.0959                 6.7627                 5.1311

                    13                     14                     15
                     A                      A                      A
 Frequencies --   908.1928              1025.8915              1035.6080
 Red. masses --     1.5960                 1.3666                 1.1568
 Frc consts  --     0.7756                 0.8474                 0.7310
 IR Inten    --    48.9952                 2.9241               239.7748

                    16                     17                     18
                     A                      A                      A
 Frequencies --  1137.1365              1150.5775              1175.1286
 Red. masses --     1.6068                 2.5384                 2.1971
 Frc consts  --     1.2242                 1.9799                 1.7876
 IR Inten    --    20.7470                14.1969                16.4203

                    19                     20                     21
                     A                      A                      A
 Frequencies --  1267.1242              1357.2245              1402.0450
 Red. masses --     1.2013                 1.5024                 1.2945
 Frc consts  --     1.1364                 1.6306                 1.4993
 IR Inten    --     4.2930                11.2600                12.3688

                    22                     23                     24
                     A                      A                      A
 Frequencies --  1474.9790              1489.5807              1500.1305
 Red. masses --     1.1053                 1.1378                 1.0664
 Frc consts  --     1.4168                 1.4875                 1.4139
 IR Inten    --     5.6113                 6.1445                 6.4947

                    25                     26                     27
                     A                      A                      A
 Frequencies --  1610.9995              2481.1157              2859.9137
 Red. masses --     1.0617                 1.0889                 1.0764
 Frc consts  --     1.6235                 3.9496                 5.1870
 IR Inten    --    76.1153               317.5633                94.3543

                    28                     29                     30
                     A                      A                      A
 Frequencies --  3023.6584              3105.6091              3134.2650
 Red. masses --     1.0427                 1.0927                 1.1035
 Frc consts  --     5.6169                 6.2095                 6.3872
 IR Inten    --    41.6464                19.6248                13.5966

                    31                     32                     33
                     A                      A                      A
 Frequencies --  3166.9736              3282.5485              3825.7603
 Red. masses --     1.0533                 1.1204                 1.0662
 Frc consts  --     6.2244                 7.1131                 9.1948
 IR Inten    --     2.7486                 1.8308               102.9103

 - Thermochemistry -
 -------------------
 Temperature   298.150 Kelvin.  Pressure   1.00000 Atm.
 Atom     1 has atomic number  6 and mass  12.00000

 Molecular mass:    76.05243 amu.
 Principal axes and moments of inertia in atomic units:
                           1         2         3
     Eigenvalues --   265.07577 536.15196 558.19771
           X            0.66279  -0.28584  -0.69210
           Y            0.28741   0.95059  -0.11737
           Z            0.69145  -0.12112   0.71220
 This molecule is an asymmetric top.
 Rotational symmetry number  1.
 Rotational temperatures (Kelvin)      0.32675     0.16155     0.15517
 Rotational constants (GHZ):           6.80840     3.36610     3.23316
    1 imaginary frequencies ignored.
 Zero-point vibrational energy     280727.7 (Joules/Mol)
                                   67.09553 (Kcal/Mol)
 Warning -- explicit consideration of   8 degrees of freedom as
           vibrations may cause significant error
 Vibrational temperatures:    158.39   344.33   492.99   546.94   596.06
          (Kelvin)            662.23   740.11   831.91  1066.90  1204.00
                             1297.53  1306.69  1476.03  1490.01  1636.08
                             1655.42  1690.75  1823.11  1952.74  2017.23
                             2122.16  2143.17  2158.35  2317.87  3569.77
                             4114.77  4350.36  4468.27  4509.50  4556.56
                             4722.85  5504.41

 Zero-point correction=                           0.106924 (Hartree/Particle)
 Thermal correction to Energy=                    0.113054
 Thermal correction to Enthalpy=                  0.113998
 Thermal correction to Gibbs Free Energy=         0.077876
 Sum of electronic and zero-point Energies=           -269.378287
 Sum of electronic and thermal Energies=              -269.372157
 Sum of electronic and thermal Enthalpies=            -269.371213
 Sum of electronic and thermal Free Energies=         -269.407335

                     E (Thermal)             CV                S
                      KCal/Mol        Cal/Mol-Kelvin    Cal/Mol-Kelvin
 Total                   70.942             22.270             76.024
 Electronic               0.000              0.000              0.000
 Translational            0.889              2.981             38.902
 Rotational               0.889              2.981             25.876
 Vibrational             69.165             16.309             11.247
 Vibration     1          0.606              1.941              3.267
 Vibration     2          0.657              1.780              1.808
 Vibration     3          0.722              1.590              1.200
 Vibration     4          0.750              1.513              1.039
 Vibration     5          0.778              1.439              0.912
 Vibration     6          0.818              1.338              0.765
 Vibration     7          0.869              1.218              0.623
 Vibration     8          0.935              1.078              0.489

 Normal termination of Gaussian 09 at Tue Mar  6 17:11:05 2018.
