 Gaussian 09, Revision B.01,
 Gaussian 09:  EM64L-G09RevB.01 12-Aug-2010

 ----------------------------------------------------------------------
 # opt=(calcfc,tight,ts,noeigen,z-matrix,maxcycle=300) freq b3lyp/6-31+
 +g(d,p) field=z-50
 ----------------------------------------------------------------------

 -------------------
 Title Card Required
 -------------------
 Symbolic Z-matrix:
 Charge =  1 Multiplicity = 1

 SCF Done:  E(RB3LYP) =  -269.891126334     A.U. after   12 cycles
 SCF Done:  E(RB3LYP) =  -269.891514596     A.U. after   10 cycles
 SCF Done:  E(RB3LYP) =  -269.891485415     A.U. after   10 cycles
 SCF Done:  E(RB3LYP) =  -269.891533338     A.U. after    9 cycles
 SCF Done:  E(RB3LYP) =  -269.891517988     A.U. after    8 cycles
 SCF Done:  E(RB3LYP) =  -269.891514807     A.U. after    9 cycles
 SCF Done:  E(RB3LYP) =  -269.891521215     A.U. after    8 cycles
 SCF Done:  E(RB3LYP) =  -269.891522645     A.U. after    7 cycles
 SCF Done:  E(RB3LYP) =  -269.891522947     A.U. after    7 cycles
 SCF Done:  E(RB3LYP) =  -269.891522961     A.U. after    8 cycles
 SCF Done:  E(RB3LYP) =  -269.891522996     A.U. after    7 cycles
 SCF Done:  E(RB3LYP) =  -269.891522803     A.U. after    6 cycles
 SCF Done:  E(RB3LYP) =  -269.891522902     A.U. after    5 cycles
 SCF Done:  E(RB3LYP) =  -269.891522815     A.U. after    5 cycles
 SCF Done:  E(RB3LYP) =  -269.891522868     A.U. after    5 cycles
 SCF Done:  E(RB3LYP) =  -269.891522826     A.U. after    5 cycles
 SCF Done:  E(RB3LYP) =  -269.891522854     A.U. after    4 cycles
 SCF Done:  E(RB3LYP) =  -269.891522835     A.U. after    4 cycles
 Optimization completed.
    -- Stationary point found.
 Normal termination of Gaussian 09 at Fri Apr 27 10:58:08 2018.

 ----------------------------------------------------------------------
 #N Geom=AllCheck Guess=TCheck SCRF=Check GenChk RB3LYP/6-31++G(d,p) Fr
 eq
 ----------------------------------------------------------------------

 Title Card Required
 -------------------
 Z-Matrix taken from the checkpoint file:
 H3O-term-field-3.chk
 Charge =  1 Multiplicity = 1

                         Standard orientation:
 ---------------------------------------------------------------------
 Center     Atomic      Atomic             Coordinates (Angstroms)
 Number     Number       Type             X           Y           Z
 ---------------------------------------------------------------------
      1          6           0       -0.350416   -0.784323   -0.223615
      2          8           0       -2.238408    0.144259   -0.004516
      3          1           0        0.133678    2.165603    0.093458
      4          1           0        1.867727    1.838691    0.250126
      5          1           0        0.611342    0.088948    1.519341
      6          1           0        1.770735   -1.575352    0.569628
      7          1           0       -0.704538   -1.666133    0.296299
      8          1           0       -2.444831    0.524407    0.865267
      9          1           0       -3.024928   -0.358057   -0.269823
     10          1           0       -0.473035   -0.719761   -1.297075
     11          6           0        0.929549    1.459183   -0.162046
     12          6           0        0.617958    0.112286    0.428453
     13          8           0        1.497068   -0.947000   -0.124653
     14          1           0        1.012028    1.400713   -1.250616
 ---------------------------------------------------------------------

 SCF Done:  E(RB3LYP) =  -269.891522835     A.U. after    1 cycles

 The electronic state is 1-A.
 Alpha  occ. eigenvalues --  -19.41494 -19.38749 -10.48965 -10.46331 -10.35635
 Alpha  occ. eigenvalues --   -1.27373  -1.23442  -0.99197  -0.90174  -0.80219
 Alpha  occ. eigenvalues --   -0.76037  -0.74866  -0.67640  -0.65782  -0.62361
 Alpha  occ. eigenvalues --   -0.60639  -0.58806  -0.55611  -0.54924  -0.54348
 Alpha  occ. eigenvalues --   -0.51680
 Alpha virt. eigenvalues --   -0.25011  -0.17273  -0.14932  -0.13252  -0.12057
 Alpha virt. eigenvalues --   -0.11577  -0.09522  -0.08651  -0.08124  -0.07603
 Alpha virt. eigenvalues --   -0.05895  -0.04968  -0.04172  -0.03191  -0.02875

 Mulliken atomic charges:
              1
     1  C   -0.018457
     2  O   -0.647030
     3  H    0.188827
     4  H    0.212935
     5  H    0.225181
     6  H    0.440769
     7  H    0.239659
     8  H    0.415232
     9  H    0.419453
    10  H    0.237497
    11  C   -0.378556
    12  C   -0.144166
    13  O   -0.362868
    14  H    0.171523
 Sum of Mulliken atomic charges =   1.00000

 Dipole moment (field-independent basis, Debye):
    X=             -2.6496    Y=             -1.9654    Z=              2.8784  Tot=              4.3782
 Quadrupole moment (field-independent basis, Debye-Ang):
   XX=            -12.6501   YY=            -22.4784   ZZ=            -25.8622
   XY=              0.7671   XZ=              1.1395   YZ=             -0.4676

  Exact polarizability:  58.506  -2.117  45.470   0.764   0.339  38.660
 Approx polarizability:  81.758  -7.221  58.356   0.345   1.605  53.745

 ******    1 imaginary frequencies (negative Signs) ******

                     1                      2                      3
                     A                      A                      A
 Frequencies --  -315.1982                78.2677               152.8538
 Red. masses --     5.9524                 1.1550                 2.8168
 Frc consts  --     0.3484                 0.0042                 0.0388
 IR Inten    --   295.1866                37.2216                 8.7702

                     4                      5                      6
                     A                      A                      A
 Frequencies --   183.4328               236.8254               292.8085
 Red. masses --     1.3920                 1.6437                 6.6405
 Frc consts  --     0.0276                 0.0543                 0.3354
 IR Inten    --     0.4082                 0.8329                 9.1680

                     7                      8                      9
                     A                      A                      A
 Frequencies --   385.8881               416.2073               481.9986
 Red. masses --     2.0076                 2.4940                 1.2692
 Frc consts  --     0.1761                 0.2546                 0.1737
 IR Inten    --     2.6280                 6.8588               268.9443

                    10                     11                     12
                     A                      A                      A
 Frequencies --   545.9225               691.0621               828.2525
 Red. masses --     1.1506                 1.1297                 2.9019
 Frc consts  --     0.2020                 0.3179                 1.1729
 IR Inten    --    30.1083                87.1081                52.2702

                    13                     14                     15
                     A                      A                      A
 Frequencies --   857.2022               916.9548               999.1475
 Red. masses --     1.6414                 1.5986                 1.0916
 Frc consts  --     0.7106                 0.7919                 0.6421
 IR Inten    --    13.9384                27.8814                 6.1741

                    16                     17                     18
                     A                      A                      A
 Frequencies --  1049.9361              1106.1776              1153.2652
 Red. masses --     1.3038                 1.4235                 1.1584
 Frc consts  --     0.8468                 1.0262                 0.9077
 IR Inten    --     1.0299                61.3752                 8.3291

                    19                     20                     21
                     A                      A                      A
 Frequencies --  1224.4700              1247.8537              1314.4429
 Red. masses --     1.5735                 1.5365                 1.3821
 Frc consts  --     1.3900                 1.4096                 1.4070
 IR Inten    --     3.8290                17.9029                11.1558

                    22                     23                     24
                     A                      A                      A
 Frequencies --  1408.9109              1443.4373              1474.3830
 Red. masses --     1.2571                 1.4040                 1.0955
 Frc consts  --     1.4702                 1.7235                 1.4031
 IR Inten    --     1.5577                15.5163                11.2902

                    25                     26                     27
                     A                      A                      A
 Frequencies --  1496.2748              1502.0746              1640.7222
 Red. masses --     1.0756                 1.3126                 1.0851
 Frc consts  --     1.4188                 1.7449                 1.7210
 IR Inten    --    13.4800                14.1054                96.5487

                    28                     29                     30
                     A                      A                      A
 Frequencies --  3062.9405              3135.7648              3145.6275
 Red. masses --     1.0357                 1.0979                 1.0989
 Frc consts  --     5.7248                 6.3607                 6.4065
 IR Inten    --     1.3431                 1.4647                 0.9330

                    31                     32                     33
                     A                      A                      A
 Frequencies --  3156.3159              3201.2853              3331.4627
 Red. masses --     1.1021                 1.0530                 1.1270
 Frc consts  --     6.4686                 6.3583                 7.3694
 IR Inten    --     1.9804                 2.0200                 7.1550

                    34                     35                     36
                     A                      A                      A
 Frequencies --  3727.2473              3748.0414              3853.1980
 Red. masses --     1.0676                 1.0446                 1.0839
 Frc consts  --     8.7381                 8.6457                 9.4819
 IR Inten    --   223.4449               108.9989               151.3612

 - Thermochemistry -
 -------------------
 Temperature   298.150 Kelvin.  Pressure   1.00000 Atm.
 Atom     1 has atomic number  6 and mass  12.00000

 Molecular mass:    77.06025 amu.
 Principal axes and moments of inertia in atomic units:
                           1         2         3
     Eigenvalues --   264.96806 595.91519 787.60858
           X            0.99922   0.03952   0.00127
           Y           -0.03949   0.99910  -0.01547
           Z           -0.00188   0.01541   0.99988
 This molecule is an asymmetric top.
 Rotational symmetry number  1.
 Rotational temperatures (Kelvin)      0.32688     0.14535     0.10997
 Rotational constants (GHZ):           6.81117     3.02852     2.29142
    1 imaginary frequencies ignored.
 Zero-point vibrational energy     319945.2 (Joules/Mol)
                                   76.46873 (Kcal/Mol)
 Warning -- explicit consideration of   9 degrees of freedom as
           vibrations may cause significant error
 Vibrational temperatures:    112.61   219.92   263.92   340.74   421.29
          (Kelvin)            555.21   598.83   693.49   785.46   994.28
                             1191.67  1233.32  1319.29  1437.55  1510.62
                             1591.54  1659.29  1761.74  1795.38  1891.19
                             2027.11  2076.78  2121.31  2152.80  2161.15
                             2360.63  4406.88  4511.66  4525.85  4541.23
                             4605.93  4793.23  5362.67  5392.59  5543.89

 Zero-point correction=                           0.121861 (Hartree/Particle)
 Thermal correction to Energy=                    0.129162
 Thermal correction to Enthalpy=                  0.130106
 Thermal correction to Gibbs Free Energy=         0.091220
 Sum of electronic and zero-point Energies=           -269.769662
 Sum of electronic and thermal Energies=              -269.762361
 Sum of electronic and thermal Enthalpies=            -269.761417
 Sum of electronic and thermal Free Energies=         -269.800303

                     E (Thermal)             CV                S
                      KCal/Mol        Cal/Mol-Kelvin    Cal/Mol-Kelvin
 Total                   81.050             25.217             81.842
 Electronic               0.000              0.000              0.000
 Translational            0.889              2.981             38.941
 Rotational               0.889              2.981             26.322
 Vibrational             79.273             19.255             16.578
 Vibration     1          0.600              1.964              3.934
 Vibration     2          0.619              1.900              2.636
 Vibration     3          0.631              1.862              2.293
 Vibration     4          0.656              1.784              1.827
 Vibration     5          0.688              1.687              1.458
 Vibration     6          0.755              1.500              1.016
 Vibration     7          0.779              1.435              0.905
 Vibration     8          0.838              1.290              0.705
 Vibration     9          0.901              1.149              0.553

 Optimization completed.
    -- Stationary point found.
 Normal termination of Gaussian 09 at Fri Apr 27 10:58:35 2018.
