 Gaussian 09, Revision B.01,
 Gaussian 09:  EM64L-G09RevB.01 12-Aug-2010

 ----------------------------------------------------------------------
 # field=z-50 opt=(ts,noeigen,calcfc,z-matrix) freq rb3lyp/6-31++g(d,p)
 ----------------------------------------------------------------------

 -------------
 H3O-BACK-MIDM
 -------------
 Symbolic Z-matrix:
 Charge =  1 Multiplicity = 1

 SCF Done:  E(RB3LYP) =  -269.888982034     A.U. after   12 cycles
 SCF Done:  E(RB3LYP) =  -269.888977220     A.U. after   11 cycles
 SCF Done:  E(RB3LYP) =  -269.889230266     A.U. after   11 cycles
 SCF Done:  E(RB3LYP) =  -269.889295378     A.U. after   11 cycles
 SCF Done:  E(RB3LYP) =  -269.889252741     A.U. after   10 cycles
 SCF Done:  E(RB3LYP) =  -269.889408993     A.U. after   11 cycles
 SCF Done:  E(RB3LYP) =  -269.889599455     A.U. after   11 cycles
 SCF Done:  E(RB3LYP) =  -269.889541317     A.U. after   10 cycles
 SCF Done:  E(RB3LYP) =  -269.889623267     A.U. after   11 cycles
 SCF Done:  E(RB3LYP) =  -269.889472096     A.U. after   10 cycles
 SCF Done:  E(RB3LYP) =  -269.889774197     A.U. after    9 cycles
 SCF Done:  E(RB3LYP) =  -269.889762910     A.U. after    9 cycles
 SCF Done:  E(RB3LYP) =  -269.889738674     A.U. after   10 cycles
 SCF Done:  E(RB3LYP) =  -269.889774188     A.U. after   10 cycles
 SCF Done:  E(RB3LYP) =  -269.889763552     A.U. after   10 cycles
 SCF Done:  E(RB3LYP) =  -269.889741343     A.U. after   10 cycles
 SCF Done:  E(RB3LYP) =  -269.889769052     A.U. after   10 cycles
 SCF Done:  E(RB3LYP) =  -269.889768041     A.U. after    9 cycles
 SCF Done:  E(RB3LYP) =  -269.889768855     A.U. after    7 cycles
 Optimization completed.
    -- Stationary point found.
 Normal termination of Gaussian 09 at Thu Apr 26 17:37:53 2018.

 ----------------------------------------------------------------------
 #N Geom=AllCheck Guess=TCheck SCRF=Check GenChk RB3LYP/6-31++G(d,p) Fr
 eq
 ----------------------------------------------------------------------

 H3O-BACK-MIDM
 -------------
 Z-Matrix taken from the checkpoint file:
 H3O-mid-field-3.chk
 Charge =  1 Multiplicity = 1

                         Standard orientation:
 ---------------------------------------------------------------------
 Center     Atomic      Atomic             Coordinates (Angstroms)
 Number     Number       Type             X           Y           Z
 ---------------------------------------------------------------------
      1          6           0       -0.088444    0.203756   -0.358039
      2          8           0        2.178268   -0.499683   -0.099605
      3          1           0       -0.539190   -1.898937    0.066033
      4          1           0       -0.686593   -0.794326    1.503328
      5          1           0        2.683054   -0.184271    0.666064
      6          1           0        2.579434   -1.347022   -0.341277
      7          1           0        0.090260    0.010531   -1.412318
      8          1           0       -2.302678   -0.808874   -0.825600
      9          1           0       -0.577760    2.257692   -0.400553
     10          1           0       -0.098348    1.666533    1.220186
     11          1           0        1.104515    1.896570   -0.093832
     12          6           0       -0.703644   -0.881820    0.418583
     13          6           0        0.083393    1.575550    0.148458
     14          8           0       -1.928334   -0.273169   -0.104900
 ---------------------------------------------------------------------

 SCF Done:  E(RB3LYP) =  -269.889768855     A.U. after    1 cycles

 The electronic state is 1-A.
 Alpha  occ. eigenvalues --  -19.41549 -19.35585 -10.49960 -10.45695 -10.38010
 Alpha  occ. eigenvalues --   -1.27450  -1.20485  -1.00901  -0.90990  -0.80374
 Alpha  occ. eigenvalues --   -0.75356  -0.72221  -0.67909  -0.66623  -0.62226
 Alpha  occ. eigenvalues --   -0.60588  -0.57729  -0.57498  -0.56904  -0.52797
 Alpha  occ. eigenvalues --   -0.50460
 Alpha virt. eigenvalues --   -0.27277  -0.18038  -0.15754  -0.13092  -0.12413
 Alpha virt. eigenvalues --   -0.10612  -0.09444  -0.08848  -0.08293  -0.07114
 Alpha virt. eigenvalues --   -0.06703  -0.05066  -0.04340  -0.02832  -0.02243

 Mulliken atomic charges:
              1
     1  C    0.289073
     2  O   -0.721004
     3  H    0.201184
     4  H    0.251807
     5  H    0.404090
     6  H    0.403066
     7  H    0.242802
     8  H    0.420507
     9  H    0.221730
    10  H    0.235291
    11  H    0.225926
    12  C   -0.205934
    13  C   -0.597414
    14  O   -0.371123
 Sum of Mulliken atomic charges =   1.00000

 Dipole moment (field-independent basis, Debye):
    X=              1.0477    Y=             -1.8149    Z=             -0.0088  Tot=              2.0957
 Quadrupole moment (field-independent basis, Debye-Ang):
   XX=            -16.2116   YY=            -19.9715   ZZ=            -25.2249
   XY=              0.3907   XZ=              5.2856   YZ=              1.6436

  Exact polarizability:  55.319   2.503  48.052   0.770   0.169  38.926
 Approx polarizability:  77.538   3.847  61.162   0.961   0.806  53.558

 ******    1 imaginary frequencies (negative Signs) ******

                     1                      2                      3
                     A                      A                      A
 Frequencies --  -204.7435               108.1395               128.7705
 Red. masses --     3.3691                 1.4510                 2.0338
 Frc consts  --     0.0832                 0.0100                 0.0199
 IR Inten    --    84.7446                25.1180                11.7327

                     4                      5                      6
                     A                      A                      A
 Frequencies --   137.3729               178.6978               207.9810
 Red. masses --     2.2028                 1.2987                 6.3267
 Frc consts  --     0.0245                 0.0244                 0.1612
 IR Inten    --    16.8932                 5.0720                10.0679

                     7                      8                      9
                     A                      A                      A
 Frequencies --   285.3415               370.0010               405.3568
 Red. masses --     2.1384                 1.2030                 1.7630
 Frc consts  --     0.1026                 0.0970                 0.1707
 IR Inten    --    11.9785               288.6646                17.7617

                    10                     11                     12
                     A                      A                      A
 Frequencies --   420.5222               574.2824               848.0622
 Red. masses --     1.2220                 1.1548                 2.4690
 Frc consts  --     0.1273                 0.2244                 1.0462
 IR Inten    --    47.5442               100.5995                37.8315

                    13                     14                     15
                     A                      A                      A
 Frequencies --   904.5874               932.3345               976.0419
 Red. masses --     1.1675                 1.9795                 1.6024
 Frc consts  --     0.5629                 1.0138                 0.8994
 IR Inten    --     1.4698                38.7733                11.3858

                    16                     17                     18
                     A                      A                      A
 Frequencies --  1037.5112              1070.8238              1220.0132
 Red. masses --     1.1656                 1.3531                 1.6800
 Frc consts  --     0.7392                 0.9142                 1.4733
 IR Inten    --    79.6795                16.9512                 4.1100

                    19                     20                     21
                     A                      A                      A
 Frequencies --  1230.3496              1281.2510              1321.2055
 Red. masses --     1.8570                 1.1975                 1.2845
 Frc consts  --     1.6562                 1.1582                 1.3211
 IR Inten    --     4.7705                23.9690                 4.9229

                    22                     23                     24
                     A                      A                      A
 Frequencies --  1384.1587              1413.9606              1456.0613
 Red. masses --     1.1883                 1.4191                 1.0456
 Frc consts  --     1.3414                 1.6717                 1.3061
 IR Inten    --    56.6626                14.7033                12.6645

                    25                     26                     27
                     A                      A                      A
 Frequencies --  1508.6286              1528.7681              1645.7254
 Red. masses --     1.2318                 1.2568                 1.0870
 Frc consts  --     1.6518                 1.7307                 1.7347
 IR Inten    --    16.5832                 8.4267                77.6079

                    28                     29                     30
                     A                      A                      A
 Frequencies --  3045.2124              3099.3583              3133.0812
 Red. masses --     1.0382                 1.0961                 1.0576
 Frc consts  --     5.6727                 6.2037                 6.1164
 IR Inten    --    18.1579                 3.9771                 1.3442

                    31                     32                     33
                     A                      A                      A
 Frequencies --  3169.4343              3215.1676              3230.2465
 Red. masses --     1.1050                 1.1115                 1.1004
 Frc consts  --     6.5400                 6.7695                 6.7648
 IR Inten    --     2.3630                 0.8008                 3.0803

                    34                     35                     36
                     A                      A                      A
 Frequencies --  3761.2058              3772.0903              3876.8673
 Red. masses --     1.0674                 1.0455                 1.0828
 Frc consts  --     8.8971                 8.7644                 9.5888
 IR Inten    --   208.6842                60.2513               124.9640

 - Thermochemistry -
 -------------------
 Temperature   298.150 Kelvin.  Pressure   1.00000 Atm.
 Atom     1 has atomic number  6 and mass  12.00000

 Molecular mass:    77.06025 amu.
 Principal axes and moments of inertia in atomic units:
                           1         2         3
     Eigenvalues --   266.35244 623.24353 807.97394
           X            0.99994   0.00090   0.01068
           Y           -0.00103   0.99993   0.01203
           Z           -0.01067  -0.01204   0.99987
 This molecule is an asymmetric top.
 Rotational symmetry number  1.
 Rotational temperatures (Kelvin)      0.32518     0.13897     0.10720
 Rotational constants (GHZ):           6.77576     2.89572     2.23366
    1 imaginary frequencies ignored.
 Zero-point vibrational energy     316284.3 (Joules/Mol)
                                   75.59377 (Kcal/Mol)
 Warning -- explicit consideration of  10 degrees of freedom as
           vibrations may cause significant error
 Vibrational temperatures:    155.59   185.27   197.65   257.11   299.24
          (Kelvin)            410.54   532.35   583.22   605.04   826.26
                             1220.17  1301.50  1341.42  1404.30  1492.75
                             1540.67  1755.32  1770.20  1843.43  1900.92
                             1991.49  2034.37  2094.94  2170.58  2199.55
                             2367.83  4381.38  4459.28  4507.80  4560.10
                             4625.90  4647.60  5411.53  5427.19  5577.94

 Zero-point correction=                           0.120466 (Hartree/Particle)
 Thermal correction to Energy=                    0.128407
 Thermal correction to Enthalpy=                  0.129351
 Thermal correction to Gibbs Free Energy=         0.089130
 Sum of electronic and zero-point Energies=           -269.769303
 Sum of electronic and thermal Energies=              -269.761362
 Sum of electronic and thermal Enthalpies=            -269.760418
 Sum of electronic and thermal Free Energies=         -269.800638

                     E (Thermal)             CV                S
                      KCal/Mol        Cal/Mol-Kelvin    Cal/Mol-Kelvin
 Total                   80.577             26.381             84.652
 Electronic               0.000              0.000              0.000
 Translational            0.889              2.981             38.941
 Rotational               0.889              2.981             26.397
 Vibrational             78.799             20.419             19.313
 Vibration     1          0.606              1.943              3.302
 Vibration     2          0.611              1.924              2.964
 Vibration     3          0.614              1.916              2.840
 Vibration     4          0.629              1.869              2.342
 Vibration     5          0.641              1.828              2.061
 Vibration     6          0.683              1.701              1.501
 Vibration     7          0.742              1.534              1.080
 Vibration     8          0.770              1.459              0.943
 Vibration     9          0.783              1.426              0.890
 Vibration    10          0.931              1.087              0.496

 Optimization completed.
    -- Stationary point found.
 Normal termination of Gaussian 09 at Thu Apr 26 17:38:21 2018.
