 Gaussian 09, Revision B.01,
 Gaussian 09:  EM64L-G09RevB.01 12-Aug-2010

 ----------------------------------------------------------------------
 # field=z-50 nosymm opt=(ts,noeigen,calcfc,z-matrix,tight) freq b3lyp/
 6-31++g(d,p)
 ----------------------------------------------------------------------

 -----------
 OH-BACK-MID
 -----------
 Symbolic Z-matrix:
 Charge = -1 Multiplicity = 1

 SCF Done:  E(RB3LYP) =  -268.939414993     A.U. after   16 cycles
 SCF Done:  E(RB3LYP) =  -268.936472696     A.U. after   12 cycles
 SCF Done:  E(RB3LYP) =  -268.934164115     A.U. after   12 cycles
 SCF Done:  E(RB3LYP) =  -268.931965770     A.U. after   12 cycles
 SCF Done:  E(RB3LYP) =  -268.931553381     A.U. after   13 cycles
 SCF Done:  E(RB3LYP) =  -268.933189222     A.U. after   13 cycles
 SCF Done:  E(RB3LYP) =  -268.933760793     A.U. after   13 cycles
 SCF Done:  E(RB3LYP) =  -268.933800517     A.U. after   13 cycles
 SCF Done:  E(RB3LYP) =  -268.934075225     A.U. after   12 cycles
 SCF Done:  E(RB3LYP) =  -268.934160977     A.U. after   12 cycles
 SCF Done:  E(RB3LYP) =  -268.934327179     A.U. after   11 cycles
 SCF Done:  E(RB3LYP) =  -268.934328167     A.U. after   11 cycles
 SCF Done:  E(RB3LYP) =  -268.934328953     A.U. after   10 cycles
 SCF Done:  E(RB3LYP) =  -268.934329414     A.U. after   11 cycles
 SCF Done:  E(RB3LYP) =  -268.934329663     A.U. after   10 cycles
 SCF Done:  E(RB3LYP) =  -268.934329655     A.U. after    9 cycles
 SCF Done:  E(RB3LYP) =  -268.934329845     A.U. after    9 cycles
 SCF Done:  E(RB3LYP) =  -268.934329850     A.U. after    8 cycles
 SCF Done:  E(RB3LYP) =  -268.934329851     A.U. after    6 cycles
 Optimization completed.
    -- Stationary point found.
 Normal termination of Gaussian 09 at Fri May 18 18:20:57 2018.

 ----------------------------------------------------------------------
 #N Geom=AllCheck Guess=TCheck SCRF=Check GenChk RB3LYP/6-31++G(d,p) Fr
 eq
 ----------------------------------------------------------------------

 OH-BACK-MID
 -----------
 Z-Matrix taken from the checkpoint file:
 OH-mid-50-2.chk
 Charge = -1 Multiplicity = 1

                          Input orientation:
 ---------------------------------------------------------------------
 Center     Atomic      Atomic             Coordinates (Angstroms)
 Number     Number       Type             X           Y           Z
 ---------------------------------------------------------------------
      1          6           0        0.000000    0.000000    0.000000
      2          8           0        0.000000    0.000000    2.327822
      3          6           0        1.367060    0.000000   -0.473857
      4          6           0       -0.825514   -1.244532    0.094927
      5          1           0        0.598263    0.502050    2.900250
      6          1           0       -0.439799    0.943676    0.276259
      7          1           0        2.005613    0.848022   -0.193058
      8          1           0        1.918788   -0.950176   -0.426803
      9          1           0       -0.304141   -2.089762   -0.370222
     10          1           0       -1.793186   -1.116480   -0.409125
     11          1           0       -0.981788   -1.435689    1.162438
     12          8           0        0.551518    0.184637   -1.622097
 ---------------------------------------------------------------------

 SCF Done:  E(RB3LYP) =  -268.934329851     A.U. after    2 cycles

 Alpha  occ. eigenvalues --  -18.96401 -18.84474 -10.07598 -10.06874 -10.01881
 Alpha  occ. eigenvalues --   -0.83221  -0.64725  -0.58291  -0.49593  -0.41858
 Alpha  occ. eigenvalues --   -0.32563  -0.28653  -0.25362  -0.23465  -0.20416
 Alpha  occ. eigenvalues --   -0.18959  -0.13390  -0.11759  -0.08869  -0.00140
 Alpha  occ. eigenvalues --   -0.00040
 Alpha virt. eigenvalues --    0.10703   0.11944   0.13045   0.15528   0.15805
 Alpha virt. eigenvalues --    0.16111   0.18728   0.19498   0.20843   0.22164
 Alpha virt. eigenvalues --    0.23512   0.23696   0.24715   0.25771   0.26271

 Mulliken atomic charges:
              1
     1  C    0.621783
     2  O   -1.030940
     3  C   -0.358692
     4  C   -0.765220
     5  H    0.274497
     6  H    0.196646
     7  H    0.086494
     8  H    0.084128
     9  H    0.130825
    10  H    0.100182
    11  H    0.212803
    12  O   -0.552505
 Sum of Mulliken atomic charges =  -1.00000

 Dipole moment (field-independent basis, Debye):
    X=             -0.0063    Y=              0.4504    Z=             -2.8230  Tot=              2.8587
 Quadrupole moment (field-independent basis, Debye-Ang):
   XX=            -35.5899   YY=            -35.9562   ZZ=            -62.4037
   XY=              0.1584   XZ=              4.5543   YZ=              2.9779

  Exact polarizability:  64.435   1.796  58.582  -5.591   0.230  85.857
 Approx polarizability:  80.820   0.452  73.296  -6.168  -1.406 119.940

 ******    1 imaginary frequencies (negative Signs) ******

                     1                      2                      3
                     A                      A                      A
 Frequencies --  -441.4389               135.8398               162.4741
 Red. masses --     4.2028                 1.9335                 1.2935
 Frc consts  --     0.4825                 0.0210                 0.0201
 IR Inten    --   463.2190                27.8627                50.1604

                     4                      5                      6
                     A                      A                      A
 Frequencies --   189.4748               244.8474               297.2854
 Red. masses --     2.2247                 1.5422                 8.3974
 Frc consts  --     0.0471                 0.0545                 0.4373
 IR Inten    --    50.0683                22.3676                20.5291

                     7                      8                      9
                     A                      A                      A
 Frequencies --   324.3308               406.4633               464.7234
 Red. masses --     2.7809                 2.0839                 1.3453
 Frc consts  --     0.1724                 0.2028                 0.1712
 IR Inten    --    63.7732                 0.3146               171.6692

                    10                     11                     12
                     A                      A                      A
 Frequencies --   853.3258               907.5304               968.9865
 Red. masses --     1.6252                 1.4003                 1.1745
 Frc consts  --     0.6972                 0.6795                 0.6497
 IR Inten    --    36.7606                 8.4852                 5.7082

                    13                     14                     15
                     A                      A                      A
 Frequencies --   986.6588              1066.3191              1117.9415
 Red. masses --     1.9853                 1.9572                 1.2595
 Frc consts  --     1.1387                 1.3112                 0.9274
 IR Inten    --    14.8080                92.8127                 4.5671

                    16                     17                     18
                     A                      A                      A
 Frequencies --  1184.6364              1204.3192              1280.0516
 Red. masses --     1.6953                 1.3760                 1.3867
 Frc consts  --     1.4017                 1.1759                 1.3387
 IR Inten    --     0.0844                10.3363                 0.6618

                    19                     20                     21
                     A                      A                      A
 Frequencies --  1363.9604              1436.6322              1476.8109
 Red. masses --     1.2605                 1.6661                 1.1017
 Frc consts  --     1.3816                 2.0260                 1.4157
 IR Inten    --    15.0250                22.5502                 0.4648

                    22                     23                     24
                     A                      A                      A
 Frequencies --  1497.9632              1542.2906              2987.1200
 Red. masses --     1.0887                 1.4485                 1.0532
 Frc consts  --     1.4393                 2.0300                 5.5367
 IR Inten    --     2.8425                 7.1853               128.5984

                    25                     26                     27
                     A                      A                      A
 Frequencies --  3002.8397              3036.8454              3066.7335
 Red. masses --     1.0364                 1.1121                 1.0982
 Frc consts  --     5.5058                 6.0430                 6.0853
 IR Inten    --    85.8668                98.6860                62.2831

                    28                     29                     30
                     A                      A                      A
 Frequencies --  3104.8873              3298.0076              3793.2198
 Red. masses --     1.1029                 1.0923                 1.0668
 Frc consts  --     6.2642                 7.0001                 9.0437
 IR Inten    --     4.7676                 2.9525                20.0253

 - Thermochemistry -
 -------------------
 Temperature   298.150 Kelvin.  Pressure   1.00000 Atm.
 Atom     1 has atomic number  6 and mass  12.00000

 Molecular mass:    75.04460 amu.
 Principal axes and moments of inertia in atomic units:
                           1         2         3
     Eigenvalues --   230.17475 567.12860 715.55606
           X           -0.24853   0.77087  -0.58651
           Y           -0.06503   0.59086   0.80415
           Z            0.96644   0.23800  -0.09672
 This molecule is an asymmetric top.
 Rotational symmetry number  1.
 Rotational temperatures (Kelvin)      0.37630     0.15272     0.12104
 Rotational constants (GHZ):           7.84074     3.18224     2.52215
    1 imaginary frequencies ignored.
 Zero-point vibrational energy     247642.1 (Joules/Mol)
                                   59.18787 (Kcal/Mol)
 Warning -- explicit consideration of   8 degrees of freedom as
           vibrations may cause significant error
 Vibrational temperatures:    195.44   233.76   272.61   352.28   427.73
          (Kelvin)            466.64   584.81   668.63  1227.74  1305.73
                             1394.15  1419.58  1534.19  1608.47  1704.43
                             1732.74  1841.71  1962.43  2066.99  2124.80
                             2155.23  2219.01  4297.79  4320.41  4369.34
                             4412.34  4467.23  4745.09  5457.59

 Zero-point correction=                           0.094322 (Hartree/Particle)
 Thermal correction to Energy=                    0.101209
 Thermal correction to Enthalpy=                  0.102154
 Thermal correction to Gibbs Free Energy=         0.064372
 Sum of electronic and zero-point Energies=           -268.840008
 Sum of electronic and thermal Energies=              -268.833120
 Sum of electronic and thermal Enthalpies=            -268.832176
 Sum of electronic and thermal Free Energies=         -268.869958

                     E (Thermal)             CV                S
                      KCal/Mol        Cal/Mol-Kelvin    Cal/Mol-Kelvin
 Total                   63.510             22.930             79.518
 Electronic               0.000              0.000              0.000
 Translational            0.889              2.981             38.862
 Rotational               0.889              2.981             26.038
 Vibrational             61.732             16.968             14.618
 Vibration     1          0.614              1.918              2.862
 Vibration     2          0.623              1.888              2.521
 Vibration     3          0.633              1.854              2.233
 Vibration     4          0.660              1.771              1.767
 Vibration     5          0.691              1.679              1.432
 Vibration     6          0.709              1.627              1.288
 Vibration     7          0.771              1.456              0.939
 Vibration     8          0.822              1.328              0.752

 Optimization completed.
    -- Stationary point found.
 Normal termination of Gaussian 09 at Fri May 18 18:21:17 2018.
