 Gaussian 09, Revision B.01,
 Gaussian 09:  EM64L-G09RevB.01 12-Aug-2010

 ----------------------------------------------------------------------
 # opt=(calcfc,tight,ts,noeigen,z-matrix,maxcycle=300) freq b3lyp/6-31+
 +g(d,p) field=z-50
 ----------------------------------------------------------------------

 -------------------
 Title Card Required
 -------------------
 Symbolic Z-matrix:
 Charge = -1 Multiplicity = 1

 SCF Done:  E(RB3LYP) =  -268.946294520     A.U. after   16 cycles
 SCF Done:  E(RB3LYP) =  -268.946294819     A.U. after    7 cycles
 Optimization completed.
    -- Stationary point found.
 Normal termination of Gaussian 09 at Fri Apr 27 10:55:36 2018.

 ----------------------------------------------------------------------
 #N Geom=AllCheck Guess=TCheck SCRF=Check GenChk RB3LYP/6-31++G(d,p) Fr
 eq
 ----------------------------------------------------------------------

 Title Card Required
 -------------------
 Z-Matrix taken from the checkpoint file:
 OH-term-field-3.chk
 Charge = -1 Multiplicity = 1

                         Standard orientation:
 ---------------------------------------------------------------------
 Center     Atomic      Atomic             Coordinates (Angstroms)
 Number     Number       Type             X           Y           Z
 ---------------------------------------------------------------------
      1          6           0        0.367038   -0.765682    0.257480
      2          8           0        2.336402    0.228326   -0.156290
      3          1           0        0.511381   -0.657341    1.321458
      4          1           0        2.679270    0.649170    0.646286
      5          1           0        0.900835   -1.540200   -0.264552
      6          1           0       -0.534864    0.064358   -1.523360
      7          1           0       -2.059694    1.645386   -0.265241
      8          1           0       -0.340858    2.125748   -0.106224
      9          1           0       -1.172441    1.291509    1.230925
     10          6           0       -1.080355    1.354330    0.141150
     11          6           0       -0.642037    0.016349   -0.426126
     12          8           0       -1.317839   -1.129402    0.047001
 ---------------------------------------------------------------------

 SCF Done:  E(RB3LYP) =  -268.946294819     A.U. after    1 cycles

 The electronic state is 1-A.
 Alpha  occ. eigenvalues --  -18.95319 -18.86734 -10.07135 -10.06530 -10.03446
 Alpha  occ. eigenvalues --   -0.82572  -0.66717  -0.58342  -0.50653  -0.41357
 Alpha  occ. eigenvalues --   -0.32430  -0.28452  -0.26868  -0.23836  -0.20646
 Alpha  occ. eigenvalues --   -0.18075  -0.16427  -0.11646  -0.07918  -0.02130
 Alpha  occ. eigenvalues --   -0.01748
 Alpha virt. eigenvalues --    0.09763   0.12001   0.13606   0.14409   0.15947
 Alpha virt. eigenvalues --    0.16522   0.18057   0.18806   0.20987   0.21668
 Alpha virt. eigenvalues --    0.23114   0.23746   0.24328   0.25346   0.25684

 Mulliken atomic charges:
              1
     1  C   -0.274027
     2  O   -0.985899
     3  H    0.165433
     4  H    0.247494
     5  H    0.177141
     6  H    0.036708
     7  H    0.109383
     8  H    0.108469
     9  H    0.157319
    10  C   -0.593055
    11  C    0.379285
    12  O   -0.528251
 Sum of Mulliken atomic charges =  -1.00000

 Dipole moment (field-independent basis, Debye):
    X=             -4.1657    Y=              1.5313    Z=              2.1248  Tot=              4.9206
 Quadrupole moment (field-independent basis, Debye-Ang):
   XX=            -62.1130   YY=            -40.3248   ZZ=            -34.3894
   XY=             -5.6809   XZ=              5.6858   YZ=              1.4899

  Exact polarizability:  91.703   4.459  66.743   0.251  -2.944  54.166
 Approx polarizability: 120.834  15.060  84.574  -0.347  -4.823  72.375

 ******    1 imaginary frequencies (negative Signs) ******

                     1                      2                      3
                     A                      A                      A
 Frequencies --  -457.0007               116.5815               168.7706
 Red. masses --     7.6227                 3.7199                 1.2281
 Frc consts  --     0.9380                 0.0298                 0.0206
 IR Inten    --   700.0220                58.6673                61.7406

                     4                      5                      6
                     A                      A                      A
 Frequencies --   189.3728               231.5521               293.6367
 Red. masses --     1.6098                 1.4320                 7.2163
 Frc consts  --     0.0340                 0.0452                 0.3666
 IR Inten    --    24.5935                 4.9067                 3.5730

                     7                      8                      9
                     A                      A                      A
 Frequencies --   385.9720               427.0237               505.2549
 Red. masses --     2.2211                 2.4431                 1.1928
 Frc consts  --     0.1950                 0.2625                 0.1794
 IR Inten    --    13.6560                15.5151                81.6761

                    10                     11                     12
                     A                      A                      A
 Frequencies --   818.1425               880.9714               918.7187
 Red. masses --     1.4565                 1.4703                 1.9044
 Frc consts  --     0.5744                 0.6723                 0.9470
 IR Inten    --     2.8198                25.7285                41.7269

                    13                     14                     15
                     A                      A                      A
 Frequencies --   965.3671              1016.8825              1089.8282
 Red. masses --     1.1227                 1.2932                 1.6685
 Frc consts  --     0.6164                 0.7879                 1.1676
 IR Inten    --     4.0351                 4.7056                32.3427

                    16                     17                     18
                     A                      A                      A
 Frequencies --  1161.4979              1209.6579              1291.6474
 Red. masses --     2.0389                 1.5836                 1.4087
 Frc consts  --     1.6206                 1.3653                 1.3847
 IR Inten    --    16.5310                17.9029                 2.9312

                    19                     20                     21
                     A                      A                      A
 Frequencies --  1375.7148              1413.5597              1473.1449
 Red. masses --     1.2383                 1.3395                 1.1685
 Frc consts  --     1.3808                 1.5770                 1.4941
 IR Inten    --     2.9031                16.8973                12.9683

                    22                     23                     24
                     A                      A                      A
 Frequencies --  1488.4804              1505.5847              2945.0283
 Red. masses --     1.0933                 1.5944                 1.0831
 Frc consts  --     1.4271                 2.1294                 5.5348
 IR Inten    --     1.9454                25.0454               131.6650

                    25                     26                     27
                     A                      A                      A
 Frequencies --  3005.7183              3073.4631              3104.2371
 Red. masses --     1.0404                 1.0947                 1.1018
 Frc consts  --     5.5378                 6.0928                 6.2557
 IR Inten    --    82.8344                45.9970                37.5665

                    28                     29                     30
                     A                      A                      A
 Frequencies --  3228.9993              3352.5089              3784.2149
 Red. masses --     1.0534                 1.1251                 1.0671
 Frc consts  --     6.4711                 7.4504                 9.0038
 IR Inten    --     7.1665                 5.9022                20.4778

 - Thermochemistry -
 -------------------
 Temperature   298.150 Kelvin.  Pressure   1.00000 Atm.
 Atom     1 has atomic number  6 and mass  12.00000

 Molecular mass:    75.04460 amu.
 Principal axes and moments of inertia in atomic units:
                           1         2         3
     Eigenvalues --   256.30702 572.13266 758.56963
           X            0.99786  -0.06370   0.01443
           Y            0.06349   0.99788   0.01425
           Z           -0.01531  -0.01331   0.99979
 This molecule is an asymmetric top.
 Rotational symmetry number  1.
 Rotational temperatures (Kelvin)      0.33793     0.15139     0.11418
 Rotational constants (GHZ):           7.04133     3.15441     2.37914
    1 imaginary frequencies ignored.
 Zero-point vibrational energy     247755.8 (Joules/Mol)
                                   59.21505 (Kcal/Mol)
 Warning -- explicit consideration of   8 degrees of freedom as
           vibrations may cause significant error
 Vibrational temperatures:    167.73   242.82   272.46   333.15   422.48
          (Kelvin)            555.33   614.39   726.95  1177.12  1267.52
                             1321.83  1388.95  1463.07  1568.02  1671.13
                             1740.43  1858.39  1979.34  2033.79  2119.52
                             2141.59  2166.20  4237.23  4324.55  4422.02
                             4466.30  4645.80  4823.51  5444.63

 Zero-point correction=                           0.094365 (Hartree/Particle)
 Thermal correction to Energy=                    0.101221
 Thermal correction to Enthalpy=                  0.102165
 Thermal correction to Gibbs Free Energy=         0.064304
 Sum of electronic and zero-point Energies=           -268.851930
 Sum of electronic and thermal Energies=              -268.845074
 Sum of electronic and thermal Enthalpies=            -268.844130
 Sum of electronic and thermal Free Energies=         -268.881991

                     E (Thermal)             CV                S
                      KCal/Mol        Cal/Mol-Kelvin    Cal/Mol-Kelvin
 Total                   63.517             22.981             79.686
 Electronic               0.000              0.000              0.000
 Translational            0.889              2.981             38.862
 Rotational               0.889              2.981             26.212
 Vibrational             61.740             17.020             14.612
 Vibration     1          0.608              1.936              3.156
 Vibration     2          0.625              1.881              2.449
 Vibration     3          0.633              1.854              2.234
 Vibration     4          0.653              1.793              1.867
 Vibration     5          0.688              1.686              1.453
 Vibration     6          0.755              1.500              1.016
 Vibration     7          0.789              1.411              0.868
 Vibration     8          0.861              1.238              0.645

 Optimization completed.
    -- Stationary point found.
 Normal termination of Gaussian 09 at Fri Apr 27 10:55:56 2018.
