 Gaussian 09, Revision B.01,
 Gaussian 09:  EM64L-G09RevB.01 12-Aug-2010

 ----------------------------------------------------------------------
 # field=z-25 freq opt=(z-matrix,ts,calcfc,noeigen) nosymm rb3lyp/6-31+
 +g(d,p)
 ----------------------------------------------------------------------

 ------------
 OH-BACK-TERM
 ------------
 Symbolic Z-matrix:
 Charge =  0 Multiplicity = 1

 SCF Done:  E(RB3LYP) =  -269.483278067     A.U. after   15 cycles
 SCF Done:  E(RB3LYP) =  -269.486680730     A.U. after   13 cycles
 SCF Done:  E(RB3LYP) =  -269.483845994     A.U. after   12 cycles
 SCF Done:  E(RB3LYP) =  -269.485055384     A.U. after   13 cycles
 SCF Done:  E(RB3LYP) =  -269.485827320     A.U. after   12 cycles
 SCF Done:  E(RB3LYP) =  -269.485655333     A.U. after   12 cycles
 SCF Done:  E(RB3LYP) =  -269.485584704     A.U. after   13 cycles
 SCF Done:  E(RB3LYP) =  -269.485807953     A.U. after   12 cycles
 SCF Done:  E(RB3LYP) =  -269.486201197     A.U. after   12 cycles
 SCF Done:  E(RB3LYP) =  -269.486212027     A.U. after   12 cycles
 SCF Done:  E(RB3LYP) =  -269.486292180     A.U. after    9 cycles
 SCF Done:  E(RB3LYP) =  -269.486039511     A.U. after   12 cycles
 SCF Done:  E(RB3LYP) =  -269.485807346     A.U. after   13 cycles
 SCF Done:  E(RB3LYP) =  -269.486113135     A.U. after   12 cycles
 SCF Done:  E(RB3LYP) =  -269.486254299     A.U. after   12 cycles
 SCF Done:  E(RB3LYP) =  -269.486290339     A.U. after   11 cycles
 SCF Done:  E(RB3LYP) =  -269.486292263     A.U. after   10 cycles
 SCF Done:  E(RB3LYP) =  -269.486292641     A.U. after   10 cycles
 SCF Done:  E(RB3LYP) =  -269.486292825     A.U. after    9 cycles
 Optimization completed.
    -- Stationary point found.
 Normal termination of Gaussian 09 at Tue Mar  6 12:54:16 2018.

 ----------------------------------------------------------------------
 #N Geom=AllCheck Guess=TCheck SCRF=Check GenChk RB3LYP/6-31++G(d,p) Fr
 eq
 ----------------------------------------------------------------------

 OH-BACK-TERM
 ------------
 Z-Matrix taken from the checkpoint file:
 ts
 Charge =  0 Multiplicity = 1

                          Input orientation:
 ---------------------------------------------------------------------
 Center     Atomic      Atomic             Coordinates (Angstroms)
 Number     Number       Type             X           Y           Z
 ---------------------------------------------------------------------
      1          6           0        0.000000    0.000000    0.000000
      2          8           0        0.000000    0.000000    2.203291
      3          1           0        0.900484    0.000000    2.559297
      4          1           0       -0.212595   -0.968970    1.889352
      5          1           0        1.058552   -0.159972   -0.174086
      6          1           0       -0.322948    1.008024    0.236085
      7          1           0       -2.647927   -0.354230    0.764476
      8          1           0       -2.703985   -0.152439   -1.008760
      9          1           0       -2.969940   -1.752907   -0.274371
     10          1           0       -0.674416   -1.565937   -1.264460
     11          6           0       -2.400804   -0.822563   -0.193375
     12          6           0       -0.906462   -1.136888   -0.268901
     13          8           0       -0.419826   -1.936880    0.763883
 ---------------------------------------------------------------------

 SCF Done:  E(RB3LYP) =  -269.486292825     A.U. after    1 cycles

 Alpha  occ. eigenvalues --  -19.16610 -19.10852 -10.28968 -10.24963 -10.18369
 Alpha  occ. eigenvalues --   -1.01480  -0.96397  -0.76530  -0.70989  -0.58941
 Alpha  occ. eigenvalues --   -0.53279  -0.49396  -0.47026  -0.43696  -0.40602
 Alpha  occ. eigenvalues --   -0.38556  -0.37577  -0.35501  -0.33514  -0.24206
 Alpha  occ. eigenvalues --   -0.23972
 Alpha virt. eigenvalues --   -0.11234  -0.01731   0.00044   0.01054   0.02516
 Alpha virt. eigenvalues --    0.03724   0.04138   0.05571   0.06596   0.07478
 Alpha virt. eigenvalues --    0.08976   0.09785   0.10929   0.11669   0.12714

 Mulliken atomic charges:
              1
     1  C   -0.219135
     2  O   -0.667146
     3  H    0.368863
     4  H    0.440240
     5  H    0.202489
     6  H    0.203097
     7  H    0.187422
     8  H    0.124045
     9  H    0.169619
    10  H    0.117678
    11  C   -0.541915
    12  C    0.184205
    13  O   -0.569462
 Sum of Mulliken atomic charges =   0.00000

 Dipole moment (field-independent basis, Debye):
    X=              1.3779    Y=              2.6747    Z=             -1.3716  Tot=              3.3066
 Quadrupole moment (field-independent basis, Debye-Ang):
   XX=            -29.5999   YY=            -40.2420   ZZ=            -32.8754
   XY=              0.1230   XZ=              4.1855   YZ=              1.6738

  Exact polarizability:  53.328   6.017  56.654   6.368   2.501  61.829
 Approx polarizability:  66.278  12.342 103.126   3.622  -4.452  90.862

 ******    1 imaginary frequencies (negative Signs) ******

                     1                      2                      3
                     A                      A                      A
 Frequencies --  -540.0733                98.3066               242.2122
 Red. masses --     3.3843                 3.8226                 1.0464
 Frc consts  --     0.5816                 0.0218                 0.0362
 IR Inten    --    52.3182                 1.3937                 1.2302

                     4                      5                      6
                     A                      A                      A
 Frequencies --   344.4717               395.3069               420.3299
 Red. masses --     2.1409                 4.1684                 4.0403
 Frc consts  --     0.1497                 0.3838                 0.4206
 IR Inten    --     7.6825               125.1884                10.0525

                     7                      8                      9
                     A                      A                      A
 Frequencies --   463.3421               514.4200               568.0167
 Red. masses --     2.3343                 1.2487                 1.1719
 Frc consts  --     0.2953                 0.1947                 0.2228
 IR Inten    --    41.5566                77.4634                87.6472

                    10                     11                     12
                     A                      A                      A
 Frequencies --   748.6571               840.3399               906.4525
 Red. masses --     1.1234                 2.3058                 1.3540
 Frc consts  --     0.3710                 0.9594                 0.6555
 IR Inten    --     2.7073                 7.0017                 6.2419

                    13                     14                     15
                     A                      A                      A
 Frequencies --   910.7866              1032.8451              1050.0220
 Red. masses --     1.6370                 1.3330                 1.1651
 Frc consts  --     0.8001                 0.8378                 0.7568
 IR Inten    --    47.5230                 2.8644               270.8935

                    16                     17                     18
                     A                      A                      A
 Frequencies --  1143.9206              1150.2512              1176.0540
 Red. masses --     1.8380                 2.1559                 2.1106
 Frc consts  --     1.4171                 1.6806                 1.7199
 IR Inten    --    21.8255                11.8238                13.4561

                    19                     20                     21
                     A                      A                      A
 Frequencies --  1271.5075              1363.9769              1404.6593
 Red. masses --     1.2042                 1.4703                 1.3130
 Frc consts  --     1.1471                 1.6117                 1.5263
 IR Inten    --     4.5640                 9.5874                13.9798

                    22                     23                     24
                     A                      A                      A
 Frequencies --  1476.3721              1491.4803              1501.2445
 Red. masses --     1.1036                 1.1392                 1.0716
 Frc consts  --     1.4173                 1.4931                 1.4230
 IR Inten    --     6.3252                 6.0101                 6.0234

                    25                     26                     27
                     A                      A                      A
 Frequencies --  1613.8111              2405.2552              2897.5765
 Red. masses --     1.0608                 1.0928                 1.0779
 Frc consts  --     1.6277                 3.7248                 5.3321
 IR Inten    --    72.4227               350.2722                72.6423

                    28                     29                     30
                     A                      A                      A
 Frequencies --  3027.7696              3105.6545              3131.9468
 Red. masses --     1.0406                 1.0956                 1.1032
 Frc consts  --     5.6207                 6.2259                 6.3756
 IR Inten    --    32.5395                20.7497                15.0379

                    31                     32                     33
                     A                      A                      A
 Frequencies --  3171.3069              3286.7200              3828.7136
 Red. masses --     1.0532                 1.1207                 1.0661
 Frc consts  --     6.2407                 7.1331                 9.2077
 IR Inten    --     2.5007                 1.4946                84.7618

 - Thermochemistry -
 -------------------
 Temperature   298.150 Kelvin.  Pressure   1.00000 Atm.
 Atom     1 has atomic number  6 and mass  12.00000

 Molecular mass:    76.05243 amu.
 Principal axes and moments of inertia in atomic units:
                           1         2         3
     Eigenvalues --   259.08665 542.83480 564.98935
           X            0.64569  -0.26867   0.71477
           Y            0.29818   0.95045   0.08790
           Z            0.70297  -0.15638  -0.69381
 This molecule is an asymmetric top.
 Rotational symmetry number  1.
 Rotational temperatures (Kelvin)      0.33430     0.15956     0.15330
 Rotational constants (GHZ):           6.96578     3.32466     3.19429
    1 imaginary frequencies ignored.
 Zero-point vibrational energy     281025.1 (Joules/Mol)
                                   67.16661 (Kcal/Mol)
 Warning -- explicit consideration of   8 degrees of freedom as
           vibrations may cause significant error
 Vibrational temperatures:    141.44   348.49   495.62   568.76   604.76
          (Kelvin)            666.65   740.13   817.25  1077.15  1209.06
                             1304.18  1310.42  1486.03  1510.75  1645.84
                             1654.95  1692.08  1829.41  1962.46  2020.99
                             2124.17  2145.90  2159.95  2321.91  3460.62
                             4168.96  4356.28  4468.34  4506.17  4562.80
                             4728.85  5508.66

 Zero-point correction=                           0.107037 (Hartree/Particle)
 Thermal correction to Energy=                    0.113157
 Thermal correction to Enthalpy=                  0.114102
 Thermal correction to Gibbs Free Energy=         0.077933
 Sum of electronic and zero-point Energies=           -269.379256
 Sum of electronic and thermal Energies=              -269.373136
 Sum of electronic and thermal Enthalpies=            -269.372191
 Sum of electronic and thermal Free Energies=         -269.408360

                     E (Thermal)             CV                S
                      KCal/Mol        Cal/Mol-Kelvin    Cal/Mol-Kelvin
 Total                   71.007             22.179             76.124
 Electronic               0.000              0.000              0.000
 Translational            0.889              2.981             38.902
 Rotational               0.889              2.981             25.877
 Vibrational             69.230             16.217             11.345
 Vibration     1          0.604              1.950              3.488
 Vibration     2          0.658              1.776              1.787
 Vibration     3          0.723              1.587              1.191
 Vibration     4          0.762              1.480              0.980
 Vibration     5          0.783              1.426              0.891
 Vibration     6          0.821              1.331              0.756
 Vibration     7          0.869              1.218              0.623
 Vibration     8          0.924              1.100              0.508

 Normal termination of Gaussian 09 at Tue Mar  6 12:54:39 2018.
