 Gaussian 09, Revision B.01,
 Gaussian 09:  EM64L-G09RevB.01 12-Aug-2010

 ----------------------------------------------------------------------
 # field=z-25 freq opt=(ts,noeigen,calcall,z-matrix) nosymm rb3lyp/6-31
 ++g(d,p)
 ----------------------------------------------------------------------

 -----------
 OH-BACK-MID
 -----------
 Symbolic Z-matrix:
 Charge =  0 Multiplicity = 1

 SCF Done:  E(RB3LYP) =  -269.487507917     A.U. after   15 cycles
 SCF Done:  E(RB3LYP) =  -269.491582323     A.U. after   13 cycles
 SCF Done:  E(RB3LYP) =  -269.491269463     A.U. after   13 cycles
 SCF Done:  E(RB3LYP) =  -269.491359751     A.U. after   13 cycles
 SCF Done:  E(RB3LYP) =  -269.491057691     A.U. after   14 cycles
 SCF Done:  E(RB3LYP) =  -269.491117580     A.U. after   13 cycles
 SCF Done:  E(RB3LYP) =  -269.491585376     A.U. after   13 cycles
 SCF Done:  E(RB3LYP) =  -269.491569560     A.U. after   13 cycles
 SCF Done:  E(RB3LYP) =  -269.491676686     A.U. after   10 cycles
 SCF Done:  E(RB3LYP) =  -269.491676990     A.U. after   10 cycles
 Optimization completed.
    -- Stationary point found.
 ******    1 imaginary frequencies (negative Signs) ******
    1 imaginary frequencies ignored.
 Normal termination of Gaussian 09 at Tue Mar  6 12:56:01 2018.

 ----------------------------------------------------------------------
 #N Geom=AllCheck Guess=TCheck SCRF=Check GenChk RB3LYP/6-31++G(d,p) Fr
 eq
 ----------------------------------------------------------------------

 OH-BACK-MID
 -----------
 Z-Matrix taken from the checkpoint file:
 H2O-mid-field.chk
 Charge =  0 Multiplicity = 1

                          Input orientation:
 ---------------------------------------------------------------------
 Center     Atomic      Atomic             Coordinates (Angstroms)
 Number     Number       Type             X           Y           Z
 ---------------------------------------------------------------------
      1          6           0        0.000000    0.000000    0.000000
      2          8           0        0.000000    0.000000    2.285847
      3          1           0        1.781847    0.000000   -1.173907
      4          1           0        1.625293   -1.415216   -0.098314
      5          1           0       -0.746640   -0.767811    0.189185
      6          1           0       -1.238617    1.332643   -1.027722
      7          1           0        0.300965    2.071265   -0.439055
      8          1           0        0.967706    0.210089    1.956482
      9          1           0       -1.048143    1.720589    0.676432
     10          1           0        0.027583   -0.819072    2.800974
     11          6           0        1.440358   -0.327924   -0.169015
     12          6           0       -0.503177    1.372038   -0.207428
     13          8           0        1.968608    0.419212    0.867765
 ---------------------------------------------------------------------

 SCF Done:  E(RB3LYP) =  -269.491676990     A.U. after    1 cycles

 Alpha  occ. eigenvalues --  -19.14960 -19.09518 -10.29716 -10.24135 -10.21522
 Alpha  occ. eigenvalues --   -0.99905  -0.95217  -0.80743  -0.69127  -0.59567
 Alpha  occ. eigenvalues --   -0.52085  -0.50383  -0.45759  -0.44675  -0.41133
 Alpha  occ. eigenvalues --   -0.40334  -0.38763  -0.35647  -0.31226  -0.23363
 Alpha  occ. eigenvalues --   -0.22995
 Alpha virt. eigenvalues --   -0.11180  -0.02023   0.00031   0.00618   0.01863
 Alpha virt. eigenvalues --    0.03715   0.04335   0.05431   0.06535   0.07399
 Alpha virt. eigenvalues --    0.08574   0.09920   0.11396   0.11644   0.11850

 Mulliken atomic charges:
              1
     1  C    0.403013
     2  O   -0.724657
     3  H    0.114985
     4  H    0.123335
     5  H    0.209417
     6  H    0.149063
     7  H    0.219884
     8  H    0.438193
     9  H    0.225699
    10  H    0.360684
    11  C   -0.246108
    12  C   -0.676355
    13  O   -0.597152
 Sum of Mulliken atomic charges =   0.00000

 Dipole moment (field-independent basis, Debye):
    X=             -3.2098    Y=             -1.8230    Z=             -1.8347  Tot=              4.1222
 Quadrupole moment (field-independent basis, Debye-Ang):
   XX=            -40.0323   YY=            -30.1184   ZZ=            -32.5205
   XY=             -3.0592   XZ=             -2.0966   YZ=             -5.0023

  Exact polarizability:  63.597  -4.028  49.019   0.547  -3.272  63.228
 Approx polarizability: 107.241   2.308  65.160  10.191  -1.071  92.755

 ******    1 imaginary frequencies (negative Signs) ******

                     1                      2                      3
                     A                      A                      A
 Frequencies --  -457.6429               140.3875               181.8371
 Red. masses --     3.2831                 1.8164                 1.5060
 Frc consts  --     0.4051                 0.0211                 0.0293
 IR Inten    --    37.7386                 4.1972                 4.1340

                     4                      5                      6
                     A                      A                      A
 Frequencies --   238.6012               312.1264               372.1645
 Red. masses --     2.2809                 2.9415                 3.3740
 Frc consts  --     0.0765                 0.1688                 0.2753
 IR Inten    --    14.8302                22.1672                71.7716

                     7                      8                      9
                     A                      A                      A
 Frequencies --   435.5396               498.7917               577.1996
 Red. masses --     2.7237                 1.2381                 1.1371
 Frc consts  --     0.3044                 0.1815                 0.2232
 IR Inten    --    30.2511               126.9113                92.3599

                    10                     11                     12
                     A                      A                      A
 Frequencies --   835.0648               883.9958               921.6597
 Red. masses --     1.6114                 1.3417                 1.5623
 Frc consts  --     0.6620                 0.6177                 0.7819
 IR Inten    --    13.4963                 3.6027                 8.7707

                    13                     14                     15
                     A                      A                      A
 Frequencies --   980.7544              1072.8502              1102.5091
 Red. masses --     1.5061                 3.4011                 1.5084
 Frc consts  --     0.8535                 2.3064                 1.0803
 IR Inten    --    17.2765               221.1282                36.7837

                    16                     17                     18
                     A                      A                      A
 Frequencies --  1155.1464              1169.3131              1225.2253
 Red. masses --     1.3903                 1.6253                 1.3772
 Frc consts  --     1.0930                 1.3093                 1.2181
 IR Inten    --   146.9975                 5.4799                 3.6348

                    19                     20                     21
                     A                      A                      A
 Frequencies --  1336.6803              1379.0364              1398.0173
 Red. masses --     1.2448                 1.2402                 1.3462
 Frc consts  --     1.3104                 1.3896                 1.5502
 IR Inten    --    12.9998                10.7877                32.7517

                    22                     23                     24
                     A                      A                      A
 Frequencies --  1451.4365              1482.1856              1503.7664
 Red. masses --     1.1524                 1.1173                 1.1781
 Frc consts  --     1.4303                 1.4462                 1.5696
 IR Inten    --    10.2071                 2.0409                 7.6323

                    25                     26                     27
                     A                      A                      A
 Frequencies --  1588.0799              2363.3467              2880.0028
 Red. masses --     1.0602                 1.0939                 1.0653
 Frc consts  --     1.5754                 3.5997                 5.2061
 IR Inten    --    73.1055               460.0903                80.4459

                    28                     29                     30
                     A                      A                      A
 Frequencies --  2946.0149              2999.5157              3090.4476
 Red. masses --     1.0875                 1.0526                 1.0804
 Frc consts  --     5.5608                 5.5795                 6.0799
 IR Inten    --   104.4107                 7.3052                 0.8090

                    31                     32                     33
                     A                      A                      A
 Frequencies --  3162.5694              3191.6099              3826.3880
 Red. masses --     1.1007                 1.0913                 1.0658
 Frc consts  --     6.4861                 6.5495                 9.1940
 IR Inten    --     2.0198                15.5691                70.4748

 - Thermochemistry -
 -------------------
 Temperature   298.150 Kelvin.  Pressure   1.00000 Atm.
 Atom     1 has atomic number  6 and mass  12.00000

 Molecular mass:    76.05243 amu.
 Principal axes and moments of inertia in atomic units:
                           1         2         3
     Eigenvalues --   366.22586 384.04811 586.25331
           X            0.37374   0.86658   0.33070
           Y           -0.35797  -0.19415   0.91332
           Z            0.85567  -0.45973   0.23765
 This molecule is an asymmetric top.
 Rotational symmetry number  1.
 Rotational temperatures (Kelvin)      0.23650     0.22553     0.14774
 Rotational constants (GHZ):           4.92795     4.69926     3.07843
    1 imaginary frequencies ignored.
 Zero-point vibrational energy     279341.6 (Joules/Mol)
                                   66.76424 (Kcal/Mol)
 Warning -- explicit consideration of   8 degrees of freedom as
           vibrations may cause significant error
 Vibrational temperatures:    201.99   261.62   343.29   449.08   535.46
          (Kelvin)            626.64   717.65   830.46  1201.47  1271.87
                             1326.06  1411.09  1543.59  1586.26  1662.00
                             1682.38  1762.82  1923.18  1984.12  2011.43
                             2088.29  2132.53  2163.58  2284.89  3400.32
                             4143.68  4238.65  4315.63  4446.46  4550.23
                             4592.01  5505.31

 Zero-point correction=                           0.106396 (Hartree/Particle)
 Thermal correction to Energy=                    0.112765
 Thermal correction to Enthalpy=                  0.113709
 Thermal correction to Gibbs Free Energy=         0.077084
 Sum of electronic and zero-point Energies=           -269.385281
 Sum of electronic and thermal Energies=              -269.378912
 Sum of electronic and thermal Enthalpies=            -269.377968
 Sum of electronic and thermal Free Energies=         -269.414593

                     E (Thermal)             CV                S
                      KCal/Mol        Cal/Mol-Kelvin    Cal/Mol-Kelvin
 Total                   70.761             22.298             77.084
 Electronic               0.000              0.000              0.000
 Translational            0.889              2.981             38.902
 Rotational               0.889              2.981             25.914
 Vibrational             68.984             16.337             12.268
 Vibration     1          0.615              1.913              2.799
 Vibration     2          0.630              1.864              2.309
 Vibration     3          0.657              1.781              1.813
 Vibration     4          0.700              1.651              1.351
 Vibration     5          0.744              1.529              1.071
 Vibration     6          0.796              1.393              0.841
 Vibration     7          0.854              1.253              0.661
 Vibration     8          0.934              1.081              0.491

 Optimization completed.
    -- Stationary point found.
 Normal termination of Gaussian 09 at Tue Mar  6 12:56:25 2018.
