 Gaussian 09, Revision B.01,
 Gaussian 09:  EM64L-G09RevB.01 12-Aug-2010

 ----------------------------------------------------------------------
 # field=z-25 opt=(ts,noeigen,calcfc,z-matrix,tight) freq b3lyp/6-31++g
 (d,p)
 ----------------------------------------------------------------------

 -------------
 H3O-BACK-TERM
 -------------
 Symbolic Z-matrix:
 Charge =  1 Multiplicity = 1

 SCF Done:  E(RB3LYP) =  -269.885088027     A.U. after   12 cycles
 SCF Done:  E(RB3LYP) =  -269.885401273     A.U. after   10 cycles
 SCF Done:  E(RB3LYP) =  -269.885617998     A.U. after   10 cycles
 SCF Done:  E(RB3LYP) =  -269.885846889     A.U. after   10 cycles
 SCF Done:  E(RB3LYP) =  -269.886074392     A.U. after   10 cycles
 SCF Done:  E(RB3LYP) =  -269.886274044     A.U. after   10 cycles
 SCF Done:  E(RB3LYP) =  -269.887069476     A.U. after   13 cycles
 SCF Done:  E(RB3LYP) =  -269.886530525     A.U. after   13 cycles
 SCF Done:  E(RB3LYP) =  -269.887631771     A.U. after   13 cycles
 SCF Done:  E(RB3LYP) =  -269.886909015     A.U. after   13 cycles
 SCF Done:  E(RB3LYP) =  -269.887011003     A.U. after    7 cycles
 SCF Done:  E(RB3LYP) =  -269.887011209     A.U. after    6 cycles
 SCF Done:  E(RB3LYP) =  -269.887011226     A.U. after    6 cycles
 SCF Done:  E(RB3LYP) =  -269.886997334     A.U. after   10 cycles
 SCF Done:  E(RB3LYP) =  -269.886999012     A.U. after   10 cycles
 SCF Done:  E(RB3LYP) =  -269.887011407     A.U. after    9 cycles
 SCF Done:  E(RB3LYP) =  -269.887011260     A.U. after    6 cycles
 SCF Done:  E(RB3LYP) =  -269.887011231     A.U. after    5 cycles
 SCF Done:  E(RB3LYP) =  -269.887011215     A.U. after    4 cycles
 Optimization completed.
    -- Stationary point found.
 Normal termination of Gaussian 09 at Thu Apr 26 21:54:26 2018.

 ----------------------------------------------------------------------
 #N Geom=AllCheck Guess=TCheck SCRF=Check GenChk RB3LYP/6-31++G(d,p) Fr
 eq
 ----------------------------------------------------------------------

 H3O-BACK-TERM
 -------------
 Z-Matrix taken from the checkpoint file:
 H3O-term-field-2.chk
 Charge =  1 Multiplicity = 1

                         Standard orientation:
 ---------------------------------------------------------------------
 Center     Atomic      Atomic             Coordinates (Angstroms)
 Number     Number       Type             X           Y           Z
 ---------------------------------------------------------------------
      1          6           0        0.343140   -0.788061    0.223294
      2          8           0        2.230824    0.117205   -0.097772
      3          1           0       -0.152670    2.171048   -0.240643
      4          1           0       -1.887025    1.815476   -0.239576
      5          1           0       -0.628284    0.046459   -1.524079
      6          1           0       -1.787832   -1.590786   -0.493235
      7          1           0        0.696058   -1.676998   -0.285231
      8          1           0        2.513312    0.776872    0.555826
      9          1           0        2.996384   -0.459616   -0.247807
     10          1           0        0.469510   -0.725270    1.297294
     11          6           0       -0.913386    1.469566    0.116829
     12          6           0       -0.622025    0.102430   -0.435123
     13          8           0       -1.499016   -0.933374    0.164955
     14          1           0       -0.920291    1.468549    1.209988
 ---------------------------------------------------------------------

 SCF Done:  E(RB3LYP) =  -269.887011215     A.U. after    1 cycles

 The electronic state is 1-A.
 Alpha  occ. eigenvalues --  -19.41529 -19.38687 -10.48783 -10.46451 -10.35631
 Alpha  occ. eigenvalues --   -1.27501  -1.23399  -0.99226  -0.90182  -0.80182
 Alpha  occ. eigenvalues --   -0.76224  -0.74997  -0.66904  -0.65873  -0.63191
 Alpha  occ. eigenvalues --   -0.60239  -0.58562  -0.55750  -0.54933  -0.54030
 Alpha  occ. eigenvalues --   -0.51884
 Alpha virt. eigenvalues --   -0.24775  -0.17810  -0.15355  -0.12592  -0.12314
 Alpha virt. eigenvalues --   -0.11352  -0.09500  -0.08585  -0.07889  -0.07335
 Alpha virt. eigenvalues --   -0.06814  -0.04395  -0.04185  -0.03396  -0.02668

 Mulliken atomic charges:
              1
     1  C   -0.065876
     2  O   -0.645545
     3  H    0.185540
     4  H    0.201894
     5  H    0.198137
     6  H    0.434566
     7  H    0.216762
     8  H    0.410017
     9  H    0.418185
    10  H    0.268440
    11  C   -0.454570
    12  C   -0.027667
    13  O   -0.342931
    14  H    0.203049
 Sum of Mulliken atomic charges =   1.00000

 Dipole moment (field-independent basis, Debye):
    X=              2.6590    Y=             -1.6945    Z=             -0.2972  Tot=              3.1670
 Quadrupole moment (field-independent basis, Debye-Ang):
   XX=            -12.1694   YY=            -21.0863   ZZ=            -27.3444
   XY=              0.3302   XZ=              5.4317   YZ=              3.5174

  Exact polarizability:  58.359   2.169  45.959   0.966   0.483  38.078
 Approx polarizability:  81.358   6.981  59.081  -0.269   0.312  52.721

 ******    1 imaginary frequencies (negative Signs) ******

                     1                      2                      3
                     A                      A                      A
 Frequencies --  -312.4492               104.8235               150.4359
 Red. masses --     6.1441                 1.2874                 2.0453
 Frc consts  --     0.3534                 0.0083                 0.0273
 IR Inten    --   308.5702                35.5324                21.0846

                     4                      5                      6
                     A                      A                      A
 Frequencies --   186.1688               238.2343               293.5642
 Red. masses --     1.8379                 1.3713                 6.3524
 Frc consts  --     0.0375                 0.0459                 0.3225
 IR Inten    --     2.6837                 1.6996                10.4953

                     7                      8                      9
                     A                      A                      A
 Frequencies --   380.4538               410.6950               471.5317
 Red. masses --     2.0595                 2.4208                 1.2408
 Frc consts  --     0.1756                 0.2406                 0.1625
 IR Inten    --     3.2554                 5.2529               258.7072

                    10                     11                     12
                     A                      A                      A
 Frequencies --   546.5003               670.1028               825.3527
 Red. masses --     1.1268                 1.1448                 3.1691
 Frc consts  --     0.1983                 0.3029                 1.2719
 IR Inten    --    24.1498                86.1483                58.2831

                    13                     14                     15
                     A                      A                      A
 Frequencies --   863.3220               908.9899              1004.6048
 Red. masses --     1.6595                 1.5501                 1.0747
 Frc consts  --     0.7287                 0.7546                 0.6390
 IR Inten    --    14.4355                23.5103                 4.2247

                    16                     17                     18
                     A                      A                      A
 Frequencies --  1038.5233              1097.4120              1160.8557
 Red. masses --     1.2244                 1.4772                 1.1672
 Frc consts  --     0.7780                 1.0482                 0.9267
 IR Inten    --     4.9234                59.5580                 7.4642

                    19                     20                     21
                     A                      A                      A
 Frequencies --  1222.8185              1240.8883              1305.2032
 Red. masses --     1.5005                 1.6175                 1.4243
 Frc consts  --     1.3219                 1.4674                 1.4296
 IR Inten    --     3.5876                14.8506                 8.0806

                    22                     23                     24
                     A                      A                      A
 Frequencies --  1407.0449              1441.4671              1476.8103
 Red. masses --     1.2471                 1.3996                 1.1069
 Frc consts  --     1.4546                 1.7134                 1.4224
 IR Inten    --     1.6857                14.8212                12.5950

                    25                     26                     27
                     A                      A                      A
 Frequencies --  1497.6023              1504.0708              1638.3039
 Red. masses --     1.0599                 1.3544                 1.0865
 Frc consts  --     1.4005                 1.8053                 1.7183
 IR Inten    --    19.0349                16.9990                89.6861

                    28                     29                     30
                     A                      A                      A
 Frequencies --  3061.4499              3137.8557              3144.1610
 Red. masses --     1.0359                 1.1002                 1.0983
 Frc consts  --     5.7203                 6.3823                 6.3972
 IR Inten    --     0.3230                 0.2771                 0.9979

                    31                     32                     33
                     A                      A                      A
 Frequencies --  3157.7434              3198.9961              3325.1647
 Red. masses --     1.0997                 1.0538                 1.1269
 Frc consts  --     6.4604                 6.3541                 7.3409
 IR Inten    --     3.1239                 3.9211                 7.5487

                    34                     35                     36
                     A                      A                      A
 Frequencies --  3746.8656              3753.5219              3859.0465
 Red. masses --     1.0658                 1.0461                 1.0843
 Frc consts  --     8.8159                 8.6836                 9.5137
 IR Inten    --   249.0286                57.2423               150.6559

 - Thermochemistry -
 -------------------
 Temperature   298.150 Kelvin.  Pressure   1.00000 Atm.
 Atom     1 has atomic number  6 and mass  12.00000

 Molecular mass:    77.06025 amu.
 Principal axes and moments of inertia in atomic units:
                           1         2         3
     Eigenvalues --   265.66892 592.13769 787.29763
           X            0.99927  -0.03530   0.01486
           Y            0.03487   0.99899   0.02844
           Z           -0.01585  -0.02790   0.99949
 This molecule is an asymmetric top.
 Rotational symmetry number  1.
 Rotational temperatures (Kelvin)      0.32602     0.14627     0.11001
 Rotational constants (GHZ):           6.79320     3.04784     2.29232
    1 imaginary frequencies ignored.
 Zero-point vibrational energy     319825.1 (Joules/Mol)
                                   76.44004 (Kcal/Mol)
 Warning -- explicit consideration of   9 degrees of freedom as
           vibrations may cause significant error
 Vibrational temperatures:    150.82   216.44   267.86   342.77   422.37
          (Kelvin)            547.39   590.90   678.43   786.29   964.13
                             1187.50  1242.13  1307.83  1445.40  1494.20
                             1578.93  1670.21  1759.36  1785.36  1877.89
                             2024.42  2073.95  2124.80  2154.71  2164.02
                             2357.15  4404.74  4514.67  4523.74  4543.28
                             4602.64  4784.16  5390.90  5400.47  5552.30

 Zero-point correction=                           0.121815 (Hartree/Particle)
 Thermal correction to Energy=                    0.129091
 Thermal correction to Enthalpy=                  0.130035
 Thermal correction to Gibbs Free Energy=         0.091380
 Sum of electronic and zero-point Energies=           -269.765196
 Sum of electronic and thermal Energies=              -269.757920
 Sum of electronic and thermal Enthalpies=            -269.756976
 Sum of electronic and thermal Free Energies=         -269.795631

                     E (Thermal)             CV                S
                      KCal/Mol        Cal/Mol-Kelvin    Cal/Mol-Kelvin
 Total                   81.006             25.303             81.356
 Electronic               0.000              0.000              0.000
 Translational            0.889              2.981             38.941
 Rotational               0.889              2.981             26.318
 Vibrational             79.228             19.342             16.096
 Vibration     1          0.605              1.945              3.363
 Vibration     2          0.618              1.902              2.667
 Vibration     3          0.632              1.859              2.266
 Vibration     4          0.656              1.782              1.816
 Vibration     5          0.688              1.686              1.453
 Vibration     6          0.750              1.512              1.037
 Vibration     7          0.775              1.447              0.924
 Vibration     8          0.828              1.313              0.733
 Vibration     9          0.902              1.147              0.551

 Optimization completed.
    -- Stationary point found.
 Normal termination of Gaussian 09 at Thu Apr 26 21:54:54 2018.
