 Gaussian 09, Revision B.01,
 Gaussian 09:  EM64L-G09RevB.01 12-Aug-2010

 ----------------------------------------------------------------------
 # opt=(z-matrix,ts,calcfc,noeigen,maxcycle=300) nosymm field=z-25 freq
  rb3lyp/6-31++g(d,p)
 ----------------------------------------------------------------------

 -------------
 H3O-BACK-MIDM
 -------------
 Symbolic Z-matrix:
 Charge =  1 Multiplicity = 1

 SCF Done:  E(RB3LYP) =  -269.891735977     A.U. after   12 cycles
 SCF Done:  E(RB3LYP) =  -269.892206030     A.U. after   12 cycles
 SCF Done:  E(RB3LYP) =  -269.893370784     A.U. after   12 cycles
 SCF Done:  E(RB3LYP) =  -269.893851197     A.U. after   11 cycles
 SCF Done:  E(RB3LYP) =  -269.894003506     A.U. after   10 cycles
 SCF Done:  E(RB3LYP) =  -269.893917876     A.U. after   10 cycles
 SCF Done:  E(RB3LYP) =  -269.893924502     A.U. after   10 cycles
 SCF Done:  E(RB3LYP) =  -269.893885016     A.U. after   10 cycles
 SCF Done:  E(RB3LYP) =  -269.893976319     A.U. after   10 cycles
 SCF Done:  E(RB3LYP) =  -269.893872032     A.U. after   10 cycles
 SCF Done:  E(RB3LYP) =  -269.894038943     A.U. after    9 cycles
 SCF Done:  E(RB3LYP) =  -269.894038833     A.U. after    9 cycles
 SCF Done:  E(RB3LYP) =  -269.894012826     A.U. after   10 cycles
 SCF Done:  E(RB3LYP) =  -269.894037909     A.U. after   10 cycles
 SCF Done:  E(RB3LYP) =  -269.894037231     A.U. after    9 cycles
 SCF Done:  E(RB3LYP) =  -269.894039165     A.U. after    9 cycles
 SCF Done:  E(RB3LYP) =  -269.894039230     A.U. after    9 cycles
 SCF Done:  E(RB3LYP) =  -269.894039284     A.U. after    8 cycles
 SCF Done:  E(RB3LYP) =  -269.894039297     A.U. after    7 cycles
 Optimization completed.
    -- Stationary point found.
 Normal termination of Gaussian 09 at Tue Mar  6 12:55:07 2018.

 ----------------------------------------------------------------------
 #N Geom=AllCheck Guess=TCheck SCRF=Check GenChk RB3LYP/6-31++G(d,p) Fr
 eq
 ----------------------------------------------------------------------

 H3O-BACK-MIDM
 -------------
 Z-Matrix taken from the checkpoint file:
 H3O-mid-field.chk
 Charge =  1 Multiplicity = 1

                          Input orientation:
 ---------------------------------------------------------------------
 Center     Atomic      Atomic             Coordinates (Angstroms)
 Number     Number       Type             X           Y           Z
 ---------------------------------------------------------------------
      1          6           0        0.000000    0.000000    0.000000
      2          8           0        0.000000    0.000000    2.348235
      3          1           0        2.139486    0.000000    0.455626
      4          1           0        1.462594   -1.621759    0.028019
      5          1           0       -0.286200   -0.729742    2.917839
      6          1           0        0.047147    0.783193    2.916722
      7          1           0       -0.083708    1.081466    0.083563
      8          1           0        1.767925    0.613067   -1.687642
      9          1           0       -1.632265   -0.416615   -1.254362
     10          1           0       -1.050023   -1.844978   -0.337169
     11          1           0       -1.969941   -0.515781    0.454023
     12          6           0        1.367063   -0.543217   -0.085422
     13          6           0       -1.213959   -0.767571   -0.300837
     14          8           0        1.292667   -0.215030   -1.502949
 ---------------------------------------------------------------------

 SCF Done:  E(RB3LYP) =  -269.894039297     A.U. after    1 cycles

 Alpha  occ. eigenvalues --  -19.40447 -19.35191 -10.50053 -10.45245 -10.38461
 Alpha  occ. eigenvalues --   -1.26331  -1.20007  -1.01001  -0.90880  -0.80285
 Alpha  occ. eigenvalues --   -0.74304  -0.71886  -0.67995  -0.66605  -0.62140
 Alpha  occ. eigenvalues --   -0.60739  -0.57881  -0.57859  -0.56152  -0.51612
 Alpha  occ. eigenvalues --   -0.50266
 Alpha virt. eigenvalues --   -0.28221  -0.16976  -0.14918  -0.12517  -0.12156
 Alpha virt. eigenvalues --   -0.10451  -0.09074  -0.08455  -0.08162  -0.07355
 Alpha virt. eigenvalues --   -0.06348  -0.04909  -0.04109  -0.02921  -0.01483

 Mulliken atomic charges:
              1
     1  C    0.219909
     2  O   -0.705731
     3  H    0.215763
     4  H    0.232293
     5  H    0.403963
     6  H    0.417120
     7  H    0.251774
     8  H    0.419513
     9  H    0.226182
    10  H    0.216409
    11  H    0.237277
    12  C   -0.160311
    13  C   -0.580456
    14  O   -0.393706
 Sum of Mulliken atomic charges =   1.00000

 Dipole moment (field-independent basis, Debye):
    X=              1.1057    Y=              0.2570    Z=              3.2640  Tot=              3.4557
 Quadrupole moment (field-independent basis, Debye-Ang):
   XX=            -20.8726   YY=            -23.8849   ZZ=            -15.0200
   XY=              3.1467   XZ=             -2.4464   YZ=             -2.0752

  Exact polarizability:  50.554   1.817  39.932  -4.713   0.558  53.420
 Approx polarizability:  65.624   1.804  55.154  -9.393   0.492  73.409

 ******    1 imaginary frequencies (negative Signs) ******

                     1                      2                      3
                     A                      A                      A
 Frequencies --  -194.4803               106.1020               123.7026
 Red. masses --     3.0055                 1.2144                 4.1091
 Frc consts  --     0.0670                 0.0081                 0.0370
 IR Inten    --   131.0804                20.4100                35.0664

                     4                      5                      6
                     A                      A                      A
 Frequencies --   141.6496               155.3852               202.1069
 Red. masses --     2.2638                 1.2196                 3.4182
 Frc consts  --     0.0268                 0.0173                 0.0823
 IR Inten    --     4.2193                29.0641                 3.8951

                     7                      8                      9
                     A                      A                      A
 Frequencies --   254.0298               292.8984               398.5094
 Red. masses --     1.9489                 1.4208                 1.5590
 Frc consts  --     0.0741                 0.0718                 0.1459
 IR Inten    --   127.1009               107.1861                29.9771

                    10                     11                     12
                     A                      A                      A
 Frequencies --   422.6789               542.7357               860.0026
 Red. masses --     1.3318                 1.1465                 2.3699
 Frc consts  --     0.1402                 0.1990                 1.0327
 IR Inten    --    35.6267               102.8125                33.3641

                    13                     14                     15
                     A                      A                      A
 Frequencies --   891.1405               937.4326               979.2873
 Red. masses --     1.1120                 1.7000                 2.1199
 Frc consts  --     0.5203                 0.8802                 1.1978
 IR Inten    --     6.5797                30.0275                20.3886

                    16                     17                     18
                     A                      A                      A
 Frequencies --  1042.5888              1075.1767              1219.2606
 Red. masses --     1.2834                 1.2433                 1.8064
 Frc consts  --     0.8219                 0.8468                 1.5822
 IR Inten    --    95.3522                 4.5730                 9.3380

                    19                     20                     21
                     A                      A                      A
 Frequencies --  1233.9566              1302.9550              1325.4203
 Red. masses --     1.7823                 1.1943                 1.2606
 Frc consts  --     1.5989                 1.1946                 1.3048
 IR Inten    --     5.5332                28.7984                 4.7212

                    22                     23                     24
                     A                      A                      A
 Frequencies --  1368.4192              1413.5133              1451.3802
 Red. masses --     1.1933                 1.3854                 1.0442
 Frc consts  --     1.3166                 1.6309                 1.2960
 IR Inten    --    64.8747                18.0068                 9.6823

                    25                     26                     27
                     A                      A                      A
 Frequencies --  1508.7988              1527.5822              1635.5508
 Red. masses --     1.2785                 1.2242                 1.0917
 Frc consts  --     1.7148                 1.6832                 1.7205
 IR Inten    --    17.3214                 9.1230                51.2051

                    28                     29                     30
                     A                      A                      A
 Frequencies --  3037.9665              3090.5967              3135.6337
 Red. masses --     1.0398                 1.0939                 1.0576
 Frc consts  --     5.6540                 6.1564                 6.1265
 IR Inten    --    25.7580                 5.9568                 0.4604

                    31                     32                     33
                     A                      A                      A
 Frequencies --  3170.4303              3208.2071              3222.2839
 Red. masses --     1.1044                 1.1039                 1.1068
 Frc consts  --     6.5403                 6.6946                 6.7709
 IR Inten    --     3.9637                 1.8882                 1.6366

                    34                     35                     36
                     A                      A                      A
 Frequencies --  3764.2959              3773.0576              3877.9402
 Red. masses --     1.0671                 1.0448                 1.0841
 Frc consts  --     8.9092                 8.7634                 9.6054
 IR Inten    --   203.7804                79.5641               147.2948

 - Thermochemistry -
 -------------------
 Temperature   298.150 Kelvin.  Pressure   1.00000 Atm.
 Atom     1 has atomic number  6 and mass  12.00000

 Molecular mass:    77.06025 amu.
 Principal axes and moments of inertia in atomic units:
                           1         2         3
     Eigenvalues --   279.38545 611.27013 807.52803
           X           -0.36899   0.91457  -0.16557
           Y            0.06003   0.20122   0.97771
           Z            0.92749   0.35083  -0.12915
 This molecule is an asymmetric top.
 Rotational symmetry number  1.
 Rotational temperatures (Kelvin)      0.31002     0.14169     0.10726
 Rotational constants (GHZ):           6.45968     2.95244     2.23490
    1 imaginary frequencies ignored.
 Zero-point vibrational energy     315172.2 (Joules/Mol)
                                   75.32796 (Kcal/Mol)
 Warning -- explicit consideration of  10 degrees of freedom as
           vibrations may cause significant error
 Vibrational temperatures:    152.66   177.98   203.80   223.56   290.79
          (Kelvin)            365.49   421.41   573.37   608.14   780.87
                             1237.35  1282.15  1348.75  1408.97  1500.05
                             1546.94  1754.24  1775.39  1874.66  1906.98
                             1968.85  2033.73  2088.21  2170.82  2197.85
                             2353.19  4370.95  4446.67  4511.47  4561.54
                             4615.89  4636.14  5415.98  5428.58  5579.48

 Zero-point correction=                           0.120043 (Hartree/Particle)
 Thermal correction to Energy=                    0.128190
 Thermal correction to Enthalpy=                  0.129134
 Thermal correction to Gibbs Free Energy=         0.088414
 Sum of electronic and zero-point Energies=           -269.773997
 Sum of electronic and thermal Energies=              -269.765849
 Sum of electronic and thermal Enthalpies=            -269.764905
 Sum of electronic and thermal Free Energies=         -269.805625

                     E (Thermal)             CV                S
                      KCal/Mol        Cal/Mol-Kelvin    Cal/Mol-Kelvin
 Total                   80.440             26.683             85.702
 Electronic               0.000              0.000              0.000
 Translational            0.889              2.981             38.941
 Rotational               0.889              2.981             26.425
 Vibrational             78.663             20.721             20.335
 Vibration     1          0.605              1.944              3.339
 Vibration     2          0.610              1.929              3.042
 Vibration     3          0.615              1.912              2.781
 Vibration     4          0.620              1.897              2.605
 Vibration     5          0.639              1.837              2.114
 Vibration     6          0.665              1.756              1.702
 Vibration     7          0.688              1.687              1.457
 Vibration     8          0.765              1.473              0.968
 Vibration     9          0.785              1.421              0.883
 Vibration    10          0.898              1.156              0.559

 Normal termination of Gaussian 09 at Tue Mar  6 12:55:34 2018.
