 Gaussian 09, Revision B.01,
 Gaussian 09:  EM64L-G09RevB.01 12-Aug-2010

 ----------------------------------------------------------------------
 # field=z-25 nosymm opt=(ts,noeigen,maxcycle=300,calcall,z-matrix) fre
 q rb3lyp/6-31++g(d,p)
 ----------------------------------------------------------------------

 -----------
 OH-BACK-MID
 -----------
 Symbolic Z-matrix:
 Charge = -1 Multiplicity = 1

 SCF Done:  E(RB3LYP) =  -268.938811472     A.U. after   16 cycles
 SCF Done:  E(RB3LYP) =  -268.937228640     A.U. after   12 cycles
 SCF Done:  E(RB3LYP) =  -268.936482360     A.U. after   12 cycles
 SCF Done:  E(RB3LYP) =  -268.936691283     A.U. after   12 cycles
 SCF Done:  E(RB3LYP) =  -268.937227477     A.U. after   12 cycles
 SCF Done:  E(RB3LYP) =  -268.937228699     A.U. after   11 cycles
 Optimization completed.
    -- Stationary point found.
 ******    1 imaginary frequencies (negative Signs) ******
    1 imaginary frequencies ignored.
 Normal termination of Gaussian 09 at Tue Mar 13 17:11:05 2018.

 ----------------------------------------------------------------------
 #N Geom=AllCheck Guess=TCheck SCRF=Check GenChk RB3LYP/6-31++G(d,p) Fr
 eq
 ----------------------------------------------------------------------

 OH-BACK-MID
 -----------
 Z-Matrix taken from the checkpoint file:
 OH-mid-10.chk
 Charge = -1 Multiplicity = 1

                          Input orientation:
 ---------------------------------------------------------------------
 Center     Atomic      Atomic             Coordinates (Angstroms)
 Number     Number       Type             X           Y           Z
 ---------------------------------------------------------------------
      1          6           0        0.000000    0.000000    0.000000
      2          8           0        0.000000    0.000000    2.296939
      3          6           0        1.372947    0.000000   -0.461499
      4          6           0       -0.838121   -1.240312    0.048612
      5          1           0        0.659897    0.548841    2.746413
      6          1           0       -0.455607    0.950072    0.223872
      7          1           0        2.007585    0.849245   -0.168594
      8          1           0        1.926668   -0.948545   -0.384477
      9          1           0       -0.285782   -2.093337   -0.362068
     10          1           0       -1.759110   -1.116474   -0.536684
     11          1           0       -1.083893   -1.427188    1.098190
     12          8           0        0.603154    0.172732   -1.634423
 ---------------------------------------------------------------------

 SCF Done:  E(RB3LYP) =  -268.937228699     A.U. after    1 cycles

 Alpha  occ. eigenvalues --  -18.95607 -18.85726 -10.07651 -10.06603 -10.02167
 Alpha  occ. eigenvalues --   -0.82476  -0.65929  -0.58455  -0.49411  -0.41772
 Alpha  occ. eigenvalues --   -0.32331  -0.28378  -0.25567  -0.23325  -0.20449
 Alpha  occ. eigenvalues --   -0.18864  -0.14492  -0.11364  -0.08191  -0.01270
 Alpha  occ. eigenvalues --   -0.01044
 Alpha virt. eigenvalues --    0.11191   0.12288   0.13228   0.15459   0.15754
 Alpha virt. eigenvalues --    0.16035   0.17843   0.18847   0.20749   0.21838
 Alpha virt. eigenvalues --    0.23567   0.23620   0.25048   0.25873   0.26024

 Mulliken atomic charges:
              1
     1  C    0.591619
     2  O   -0.998666
     3  C   -0.342836
     4  C   -0.753796
     5  H    0.257743
     6  H    0.192115
     7  H    0.082547
     8  H    0.075826
     9  H    0.142782
    10  H    0.105853
    11  H    0.196652
    12  O   -0.549839
 Sum of Mulliken atomic charges =  -1.00000

 Dipole moment (field-independent basis, Debye):
    X=             -0.1501    Y=              0.4880    Z=             -3.0602  Tot=              3.1025
 Quadrupole moment (field-independent basis, Debye-Ang):
   XX=            -35.5677   YY=            -35.7648   ZZ=            -63.3432
   XY=              0.2910   XZ=              4.8766   YZ=              3.0165

  Exact polarizability:  63.655   1.815  57.663  -5.463   0.339  86.544
 Approx polarizability:  80.276   0.552  72.555  -6.718  -1.608 122.459

 ******    1 imaginary frequencies (negative Signs) ******

                     1                      2                      3
                     A                      A                      A
 Frequencies --  -451.5752               130.0255               163.7597
 Red. masses --     5.0234                 1.2088                 1.8054
 Frc consts  --     0.6035                 0.0120                 0.0285
 IR Inten    --   554.5530                 9.0959                80.6229

                     4                      5                      6
                     A                      A                      A
 Frequencies --   184.3747               233.0795               292.0719
 Red. masses --     2.0009                 1.8756                 9.0493
 Frc consts  --     0.0401                 0.0600                 0.4548
 IR Inten    --    48.2435                14.6678                20.0125

                     7                      8                      9
                     A                      A                      A
 Frequencies --   318.5967               409.0335               471.1156
 Red. masses --     2.8890                 2.0963                 1.2919
 Frc consts  --     0.1728                 0.2066                 0.1689
 IR Inten    --    47.3945                 0.7834               151.3189

                    10                     11                     12
                     A                      A                      A
 Frequencies --   858.4959               912.2561               972.7917
 Red. masses --     1.6535                 1.3353                 1.1467
 Frc consts  --     0.7180                 0.6547                 0.6393
 IR Inten    --    23.8346                 6.3230                 3.7570

                    13                     14                     15
                     A                      A                      A
 Frequencies --   993.3736              1071.4997              1122.2966
 Red. masses --     1.9749                 2.0739                 1.2572
 Frc consts  --     1.1482                 1.4029                 0.9329
 IR Inten    --    14.0243               102.4098                 3.3556

                    16                     17                     18
                     A                      A                      A
 Frequencies --  1184.7280              1211.9831              1282.0547
 Red. masses --     1.7117                 1.4052                 1.3829
 Frc consts  --     1.4155                 1.2162                 1.3393
 IR Inten    --     0.2093                12.1052                 0.5067

                    19                     20                     21
                     A                      A                      A
 Frequencies --  1370.5182              1436.2495              1478.3025
 Red. masses --     1.2607                 1.6880                 1.0860
 Frc consts  --     1.3952                 2.0516                 1.3984
 IR Inten    --    10.1449                21.8480                 0.2268

                    22                     23                     24
                     A                      A                      A
 Frequencies --  1498.1221              1541.2477              2970.9047
 Red. masses --     1.0980                 1.4242                 1.0519
 Frc consts  --     1.4520                 1.9933                 5.4704
 IR Inten    --     3.4193                 6.2144               136.2341

                    25                     26                     27
                     A                      A                      A
 Frequencies --  3011.2047              3013.0988              3074.4353
 Red. masses --     1.0536                 1.0962                 1.0968
 Frc consts  --     5.6285                 5.8634                 6.1080
 IR Inten    --    28.7271               162.7233                53.1143

                    28                     29                     30
                     A                      A                      A
 Frequencies --  3120.0994              3294.6017              3783.6475
 Red. masses --     1.1013                 1.0924                 1.0669
 Frc consts  --     6.3170                 6.9858                 8.9988
 IR Inten    --     3.4181                 5.3013                26.4461

 - Thermochemistry -
 -------------------
 Temperature   298.150 Kelvin.  Pressure   1.00000 Atm.
 Atom     1 has atomic number  6 and mass  12.00000

 Molecular mass:    75.04460 amu.
 Principal axes and moments of inertia in atomic units:
                           1         2         3
     Eigenvalues --   233.14162 558.06600 711.68485
           X           -0.25849   0.77335  -0.57889
           Y           -0.06157   0.58485   0.80880
           Z            0.96405   0.24470  -0.10356
 This molecule is an asymmetric top.
 Rotational symmetry number  1.
 Rotational temperatures (Kelvin)      0.37151     0.15520     0.12170
 Rotational constants (GHZ):           7.74097     3.23392     2.53587
    1 imaginary frequencies ignored.
 Zero-point vibrational energy     247650.7 (Joules/Mol)
                                   59.18994 (Kcal/Mol)
 Warning -- explicit consideration of   8 degrees of freedom as
           vibrations may cause significant error
 Vibrational temperatures:    187.08   235.61   265.27   335.35   420.23
          (Kelvin)            458.39   588.51   677.83  1235.18  1312.53
                             1399.63  1429.24  1541.65  1614.73  1704.56
                             1743.77  1844.59  1971.87  2066.44  2126.94
                             2155.46  2217.51  4274.46  4332.45  4335.17
                             4423.42  4489.12  4740.19  5443.82

 Zero-point correction=                           0.094325 (Hartree/Particle)
 Thermal correction to Energy=                    0.101246
 Thermal correction to Enthalpy=                  0.102191
 Thermal correction to Gibbs Free Energy=         0.064306
 Sum of electronic and zero-point Energies=           -268.842904
 Sum of electronic and thermal Energies=              -268.835982
 Sum of electronic and thermal Enthalpies=            -268.835038
 Sum of electronic and thermal Free Energies=         -268.872922

                     E (Thermal)             CV                S
                      KCal/Mol        Cal/Mol-Kelvin    Cal/Mol-Kelvin
 Total                   63.533             22.918             79.734
 Electronic               0.000              0.000              0.000
 Translational            0.889              2.981             38.862
 Rotational               0.889              2.981             26.029
 Vibrational             61.756             16.957             14.842
 Vibration     1          0.612              1.923              2.946
 Vibration     2          0.623              1.887              2.506
 Vibration     3          0.631              1.861              2.284
 Vibration     4          0.654              1.790              1.855
 Vibration     5          0.687              1.689              1.462
 Vibration     6          0.705              1.638              1.317
 Vibration     7          0.773              1.451              0.930
 Vibration     8          0.828              1.314              0.734

 Optimization completed.
    -- Stationary point found.
 Normal termination of Gaussian 09 at Tue Mar 13 17:11:25 2018.
