 Gaussian 09, Revision B.01,
 Gaussian 09:  EM64L-G09RevB.01 12-Aug-2010

 ----------------------------------------------------------------------
 # opt=(maxcycle=300,calcfc,tight,ts,noeigen,z-matrix) freq b3lyp/6-31+
 +g(d,p) field=z-25
 ----------------------------------------------------------------------

 -------------------
 Title Card Required
 -------------------
 Symbolic Z-matrix:
 Charge = -1 Multiplicity = 1

 SCF Done:  E(RB3LYP) =  -268.945523608     A.U. after   15 cycles
 SCF Done:  E(RB3LYP) =  -268.945617262     A.U. after   11 cycles
 SCF Done:  E(RB3LYP) =  -268.945620499     A.U. after   10 cycles
 SCF Done:  E(RB3LYP) =  -268.945621253     A.U. after    9 cycles
 SCF Done:  E(RB3LYP) =  -268.945622141     A.U. after    9 cycles
 SCF Done:  E(RB3LYP) =  -268.945622560     A.U. after    8 cycles
 SCF Done:  E(RB3LYP) =  -268.945622817     A.U. after    8 cycles
 SCF Done:  E(RB3LYP) =  -268.945607201     A.U. after   11 cycles
 SCF Done:  E(RB3LYP) =  -268.945622982     A.U. after   11 cycles
 SCF Done:  E(RB3LYP) =  -268.945623044     A.U. after    9 cycles
 SCF Done:  E(RB3LYP) =  -268.945623189     A.U. after    7 cycles
 SCF Done:  E(RB3LYP) =  -268.945623203     A.U. after    7 cycles
 Optimization completed.
    -- Stationary point found.
 Normal termination of Gaussian 09 at Fri Apr 27 11:11:22 2018.

 ----------------------------------------------------------------------
 #N Geom=AllCheck Guess=TCheck SCRF=Check GenChk RB3LYP/6-31++G(d,p) Fr
 eq
 ----------------------------------------------------------------------

 Title Card Required
 -------------------
 Z-Matrix taken from the checkpoint file:
 OH-term-field-3.chk
 Charge = -1 Multiplicity = 1

                         Standard orientation:
 ---------------------------------------------------------------------
 Center     Atomic      Atomic             Coordinates (Angstroms)
 Number     Number       Type             X           Y           Z
 ---------------------------------------------------------------------
      1          6           0       -0.372377   -0.768121   -0.150018
      2          8           0       -2.372038    0.249366   -0.081557
      3          1           0       -0.616072   -0.621309   -1.188403
      4          1           0       -2.597268    0.462130    0.836626
      5          1           0       -0.857276   -1.553947    0.403706
      6          1           0        0.718615    0.038545    1.548450
      7          1           0        2.083024    1.648608    0.158205
      8          1           0        0.357249    2.126653    0.179394
      9          1           0        1.038022    1.303810   -1.241637
     10          6           0        1.068117    1.358477   -0.147451
     11          6           0        0.695975    0.011977    0.446992
     12          8           0        1.312466   -1.126677   -0.117628
 ---------------------------------------------------------------------

 SCF Done:  E(RB3LYP) =  -268.945623203     A.U. after    1 cycles

 The electronic state is 1-A.
 Alpha  occ. eigenvalues --  -18.95618 -18.86543 -10.07315 -10.06496 -10.03660
 Alpha  occ. eigenvalues --   -0.82965  -0.66560  -0.58523  -0.50600  -0.41534
 Alpha  occ. eigenvalues --   -0.32614  -0.28566  -0.27011  -0.24015  -0.20798
 Alpha  occ. eigenvalues --   -0.18373  -0.15760  -0.12272  -0.08186  -0.01945
 Alpha  occ. eigenvalues --   -0.01586
 Alpha virt. eigenvalues --    0.10575   0.12920   0.13521   0.14395   0.15648
 Alpha virt. eigenvalues --    0.16387   0.16487   0.19062   0.21251   0.21346
 Alpha virt. eigenvalues --    0.23732   0.23897   0.24227   0.25303   0.25631

 Mulliken atomic charges:
              1
     1  C   -0.215740
     2  O   -0.971962
     3  H    0.183879
     4  H    0.242399
     5  H    0.164362
     6  H    0.085753
     7  H    0.123202
     8  H    0.110235
     9  H    0.120605
    10  C   -0.509170
    11  C    0.193235
    12  O   -0.526798
 Sum of Mulliken atomic charges =  -1.00000

 Dipole moment (field-independent basis, Debye):
    X=              4.5523    Y=              1.1870    Z=              2.0924  Tot=              5.1489
 Quadrupole moment (field-independent basis, Debye-Ang):
   XX=            -63.3869   YY=            -40.6744   ZZ=            -33.7628
   XY=              6.7654   XZ=             -3.0383   YZ=              0.4330

  Exact polarizability:  91.322  -4.160  66.493  -0.876   1.026  54.119
 Approx polarizability: 120.030 -14.346  84.155  -1.480   3.659  72.774

 ******    1 imaginary frequencies (negative Signs) ******

                     1                      2                      3
                     A                      A                      A
 Frequencies --  -447.0717               109.1080               162.3012
 Red. masses --     7.5170                 3.3918                 1.0951
 Frc consts  --     0.8852                 0.0238                 0.0170
 IR Inten    --   706.0892                52.2274                56.8418

                     4                      5                      6
                     A                      A                      A
 Frequencies --   180.1758               227.1877               292.7787
 Red. masses --     1.4274                 1.8093                 8.1013
 Frc consts  --     0.0273                 0.0550                 0.4092
 IR Inten    --    14.4364                17.6689                 9.7360

                     7                      8                      9
                     A                      A                      A
 Frequencies --   394.3169               423.5303               480.6178
 Red. masses --     2.3692                 2.2191                 1.2803
 Frc consts  --     0.2170                 0.2345                 0.1742
 IR Inten    --     6.6378                 6.4225               100.1553

                    10                     11                     12
                     A                      A                      A
 Frequencies --   817.9741               883.0342               918.2346
 Red. masses --     1.4776                 1.5192                 1.8207
 Frc consts  --     0.5825                 0.6979                 0.9045
 IR Inten    --     6.4938                21.2658                36.4963

                    13                     14                     15
                     A                      A                      A
 Frequencies --   974.9800              1019.7999              1092.6666
 Red. masses --     1.1515                 1.2631                 1.7093
 Frc consts  --     0.6449                 0.7740                 1.2024
 IR Inten    --    13.7368                 2.3597                23.6048

                    16                     17                     18
                     A                      A                      A
 Frequencies --  1159.9267              1211.6044              1287.2302
 Red. masses --     2.0120                 1.5497                 1.4120
 Frc consts  --     1.5949                 1.3403                 1.3785
 IR Inten    --    15.4767                18.1547                 3.6666

                    19                     20                     21
                     A                      A                      A
 Frequencies --  1377.6537              1409.5651              1466.3479
 Red. masses --     1.2307                 1.3078                 1.2325
 Frc consts  --     1.3763                 1.5309                 1.5614
 IR Inten    --     1.8962                18.6500                16.9139

                    22                     23                     24
                     A                      A                      A
 Frequencies --  1485.4149              1497.2726              2971.0725
 Red. masses --     1.1013                 1.4950                 1.0836
 Frc consts  --     1.4318                 1.9747                 5.6358
 IR Inten    --     1.8209                20.6545               100.7456

                    25                     26                     27
                     A                      A                      A
 Frequencies --  3009.9900              3077.4741              3100.2323
 Red. masses --     1.0379                 1.0976                 1.1019
 Frc consts  --     5.5404                 6.1246                 6.2398
 IR Inten    --    68.8488                54.3241                42.3018

                    28                     29                     30
                     A                      A                      A
 Frequencies --  3236.0581              3359.1007              3780.2510
 Red. masses --     1.0515                 1.1273                 1.0671
 Frc consts  --     6.4876                 7.4941                 8.9847
 IR Inten    --     8.8876                 6.0567                22.9515

 - Thermochemistry -
 -------------------
 Temperature   298.150 Kelvin.  Pressure   1.00000 Atm.
 Atom     1 has atomic number  6 and mass  12.00000

 Molecular mass:    75.04460 amu.
 Principal axes and moments of inertia in atomic units:
                           1         2         3
     Eigenvalues --   255.60640 581.05964 768.45816
           X            0.99774   0.06624  -0.01122
           Y           -0.06633   0.99776  -0.00855
           Z            0.01063   0.00927   0.99990
 This molecule is an asymmetric top.
 Rotational symmetry number  1.
 Rotational temperatures (Kelvin)      0.33886     0.14906     0.11271
 Rotational constants (GHZ):           7.06063     3.10595     2.34852
    1 imaginary frequencies ignored.
 Zero-point vibrational energy     247662.3 (Joules/Mol)
                                   59.19271 (Kcal/Mol)
 Warning -- explicit consideration of   8 degrees of freedom as
           vibrations may cause significant error
 Vibrational temperatures:    156.98   233.52   259.23   326.87   421.24
          (Kelvin)            567.33   609.36   691.50  1176.88  1270.49
                             1321.13  1402.78  1467.26  1572.10  1668.87
                             1743.23  1852.03  1982.13  2028.05  2109.74
                             2137.18  2154.24  4274.71  4330.70  4427.79
                             4460.54  4655.96  4832.99  5438.93

 Zero-point correction=                           0.094330 (Hartree/Particle)
 Thermal correction to Energy=                    0.101244
 Thermal correction to Enthalpy=                  0.102188
 Thermal correction to Gibbs Free Energy=         0.064138
 Sum of electronic and zero-point Energies=           -268.851294
 Sum of electronic and thermal Energies=              -268.844379
 Sum of electronic and thermal Enthalpies=            -268.843435
 Sum of electronic and thermal Free Energies=         -268.881485

                     E (Thermal)             CV                S
                      KCal/Mol        Cal/Mol-Kelvin    Cal/Mol-Kelvin
 Total                   63.532             23.049             80.083
 Electronic               0.000              0.000              0.000
 Translational            0.889              2.981             38.862
 Rotational               0.889              2.981             26.237
 Vibrational             61.754             17.087             14.984
 Vibration     1          0.606              1.942              3.285
 Vibration     2          0.622              1.889              2.523
 Vibration     3          0.629              1.867              2.327
 Vibration     4          0.651              1.800              1.901
 Vibration     5          0.688              1.687              1.458
 Vibration     6          0.761              1.482              0.984
 Vibration     7          0.786              1.419              0.880
 Vibration     8          0.837              1.293              0.708

 Normal termination of Gaussian 09 at Fri Apr 27 11:11:43 2018.
