 Gaussian 09, Revision B.01,
 Gaussian 09:  EM64L-G09RevB.01 12-Aug-2010

 ----------------------------------------------------------------------
 # opt=(maxcycle=300,calcfc,tight,ts,noeigen,z-matrix) freq b3lyp/6-31+
 +g(d,p) field=z+50
 ----------------------------------------------------------------------

 -------------------
 Title Card Required
 -------------------
 Symbolic Z-matrix:
 Charge =  0 Multiplicity = 1

 SCF Done:  E(RB3LYP) =  -269.493198880     A.U. after   16 cycles
 SCF Done:  E(RB3LYP) =  -269.492417981     A.U. after   13 cycles
 SCF Done:  E(RB3LYP) =  -269.494601260     A.U. after   13 cycles
 SCF Done:  E(RB3LYP) =  -269.494915508     A.U. after   13 cycles
 SCF Done:  E(RB3LYP) =  -269.495167780     A.U. after   12 cycles
 SCF Done:  E(RB3LYP) =  -269.495177672     A.U. after   12 cycles
 SCF Done:  E(RB3LYP) =  -269.495330705     A.U. after   11 cycles
 SCF Done:  E(RB3LYP) =  -269.493109480     A.U. after   13 cycles
 SCF Done:  E(RB3LYP) =  -269.492920335     A.U. after   13 cycles
 SCF Done:  E(RB3LYP) =  -269.494103621     A.U. after   12 cycles
 SCF Done:  E(RB3LYP) =  -269.495804908     A.U. after   10 cycles
 SCF Done:  E(RB3LYP) =  -269.495799131     A.U. after    9 cycles
 SCF Done:  E(RB3LYP) =  -269.495799600     A.U. after    9 cycles
 SCF Done:  E(RB3LYP) =  -269.495799524     A.U. after   10 cycles
 SCF Done:  E(RB3LYP) =  -269.495799495     A.U. after    8 cycles
 SCF Done:  E(RB3LYP) =  -269.495799319     A.U. after    7 cycles
 SCF Done:  E(RB3LYP) =  -269.495799610     A.U. after    7 cycles
 SCF Done:  E(RB3LYP) =  -269.495799467     A.U. after    6 cycles
 SCF Done:  E(RB3LYP) =  -269.495799459     A.U. after    6 cycles
 Optimization completed.
    -- Stationary point found.
 Normal termination of Gaussian 09 at Fri Apr 27 11:09:31 2018.

 ----------------------------------------------------------------------
 #N Geom=AllCheck Guess=TCheck SCRF=Check GenChk RB3LYP/6-31++G(d,p) Fr
 eq
 ----------------------------------------------------------------------

 Title Card Required
 -------------------
 Z-Matrix taken from the checkpoint file:
 H2O-mid-field-3.chk
 Charge =  0 Multiplicity = 1

                         Standard orientation:
 ---------------------------------------------------------------------
 Center     Atomic      Atomic             Coordinates (Angstroms)
 Number     Number       Type             X           Y           Z
 ---------------------------------------------------------------------
      1          6           0       -0.601008   -0.211604    0.437821
      2          8           0        0.521742    1.597586   -0.183978
      3          1           0        0.200938   -1.239928   -1.253303
      4          1           0        0.026234   -1.904718    0.384631
      5          1           0       -0.399571    0.088255    1.463414
      6          1           0       -2.750963   -0.163292    0.657337
      7          1           0       -2.146320   -0.824342   -0.904015
      8          1           0        1.273989    0.895146   -0.124773
      9          1           0       -2.041503    0.900642   -0.570859
     10          1           0        0.726482    2.279579    0.468247
     11          6           0        0.459899   -0.980275   -0.201273
     12          6           0       -1.972164   -0.093745   -0.107322
     13          8           0        1.702052   -0.637285    0.071974
 ---------------------------------------------------------------------

 SCF Done:  E(RB3LYP) =  -269.495799459     A.U. after    1 cycles

 The electronic state is 1-A.
 Alpha  occ. eigenvalues --  -19.16937 -19.08100 -10.29277 -10.25084 -10.22730
 Alpha  occ. eigenvalues --   -1.01811  -0.96181  -0.82814  -0.70617  -0.60223
 Alpha  occ. eigenvalues --   -0.54310  -0.48667  -0.46504  -0.45973  -0.42250
 Alpha  occ. eigenvalues --   -0.40697  -0.39935  -0.37229  -0.32616  -0.23127
 Alpha  occ. eigenvalues --   -0.22538
 Alpha virt. eigenvalues --   -0.09589  -0.03583  -0.01096   0.00256   0.00888
 Alpha virt. eigenvalues --    0.03762   0.04874   0.05305   0.05759   0.07409
 Alpha virt. eigenvalues --    0.08885   0.09577   0.10134   0.10966   0.11472

 Mulliken atomic charges:
              1
     1  C    0.406672
     2  O   -0.693799
     3  H    0.185091
     4  H    0.093413
     5  H    0.215059
     6  H    0.156010
     7  H    0.207930
     8  H    0.414931
     9  H    0.218888
    10  H    0.361518
    11  C   -0.272332
    12  C   -0.687305
    13  O   -0.606077
 Sum of Mulliken atomic charges =   0.00000

 Dipole moment (field-independent basis, Debye):
    X=             -5.0383    Y=              0.9083    Z=              0.7816  Tot=              5.1788
 Quadrupole moment (field-independent basis, Debye-Ang):
   XX=            -37.1358   YY=            -30.3534   ZZ=            -31.4259
   XY=              4.7799   XZ=              0.1861   YZ=              3.7167

  Exact polarizability:  68.788  -0.811  63.383  -1.671   1.618  45.163
 Approx polarizability: 102.563  -5.592  94.196  -5.581   1.917  63.645

 ******    1 imaginary frequencies (negative Signs) ******

                     1                      2                      3
                     A                      A                      A
 Frequencies --  -563.5428               154.8756               213.0052
 Red. masses --     1.9947                 1.1260                 4.1439
 Frc consts  --     0.3732                 0.0159                 0.1108
 IR Inten    --    62.4129                 2.0165                51.8242

                     4                      5                      6
                     A                      A                      A
 Frequencies --   250.7736               293.3789               346.0463
 Red. masses --     1.8895                 2.6475                 1.9625
 Frc consts  --     0.0700                 0.1343                 0.1385
 IR Inten    --    14.7018                46.8634                43.1405

                     7                      8                      9
                     A                      A                      A
 Frequencies --   398.5439               510.1128               545.2523
 Red. masses --     2.4095                 1.5089                 2.9332
 Frc consts  --     0.2255                 0.2313                 0.5138
 IR Inten    --    17.4603                46.0503                41.7359

                    10                     11                     12
                     A                      A                      A
 Frequencies --   569.1522               836.2210               941.5388
 Red. masses --     1.1955                 1.2418                 1.3879
 Frc consts  --     0.2282                 0.5116                 0.7249
 IR Inten    --    69.6991                13.6628                 2.4316

                    13                     14                     15
                     A                      A                      A
 Frequencies --  1013.5735              1050.3513              1083.2127
 Red. masses --     1.3499                 1.2776                 1.2060
 Frc consts  --     0.8171                 0.8304                 0.8337
 IR Inten    --    48.2724                12.7991               246.1673

                    16                     17                     18
                     A                      A                      A
 Frequencies --  1128.2152              1206.0753              1262.3188
 Red. masses --     2.1398                 1.7885                 1.6983
 Frc consts  --     1.6047                 1.5328                 1.5945
 IR Inten    --    11.2464                29.9910                76.9101

                    19                     20                     21
                     A                      A                      A
 Frequencies --  1280.7477              1341.6245              1386.2739
 Red. masses --     1.7929                 1.2927                 1.2422
 Frc consts  --     1.7327                 1.3709                 1.4065
 IR Inten    --    81.3240                 9.5760                44.2981

                    22                     23                     24
                     A                      A                      A
 Frequencies --  1451.5898              1471.7419              1498.9130
 Red. masses --     1.4399                 1.0784                 1.3364
 Frc consts  --     1.7876                 1.3762                 1.7691
 IR Inten    --    40.6896                10.8656                 1.5844

                    25                     26                     27
                     A                      A                      A
 Frequencies --  1660.1691              2352.3783              2633.6072
 Red. masses --     1.0655                 1.0592                 1.0858
 Frc consts  --     1.7303                 3.4535                 4.4370
 IR Inten    --    76.0122                95.8111               381.4432

                    28                     29                     30
                     A                      A                      A
 Frequencies --  2876.6043              3031.8073              3094.6682
 Red. masses --     1.0773                 1.0384                 1.0929
 Frc consts  --     5.2524                 5.6237                 6.1671
 IR Inten    --    55.0034                 3.3246                10.3151

                    31                     32                     33
                     A                      A                      A
 Frequencies --  3130.7845              3198.2536              3861.8466
 Red. masses --     1.1053                 1.0906                 1.0659
 Frc consts  --     6.3830                 6.5728                 9.3657
 IR Inten    --     7.8242                14.2118                72.7778

 - Thermochemistry -
 -------------------
 Temperature   298.150 Kelvin.  Pressure   1.00000 Atm.
 Atom     1 has atomic number  6 and mass  12.00000

 Molecular mass:    76.05243 amu.
 Principal axes and moments of inertia in atomic units:
                           1         2         3
     Eigenvalues --   290.63264 471.71566 696.68008
           X            0.99846   0.05518   0.00642
           Y           -0.05536   0.99795   0.03217
           Z           -0.00464  -0.03248   0.99946
 This molecule is an asymmetric top.
 Rotational symmetry number  1.
 Rotational temperatures (Kelvin)      0.29802     0.18361     0.12432
 Rotational constants (GHZ):           6.20970     3.82591     2.59049
    1 imaginary frequencies ignored.
 Zero-point vibrational energy     275581.7 (Joules/Mol)
                                   65.86560 (Kcal/Mol)
 Warning -- explicit consideration of   9 degrees of freedom as
           vibrations may cause significant error
 Vibrational temperatures:    222.83   306.47   360.81   422.11   497.88
          (Kelvin)            573.42   733.94   784.50   818.88  1203.13
                             1354.66  1458.30  1511.22  1558.50  1623.25
                             1735.27  1816.19  1842.71  1930.30  1994.54
                             2088.51  2117.51  2156.60  2388.61  3384.54
                             3789.17  4138.79  4362.09  4452.53  4504.50
                             4601.57  5556.33

 Zero-point correction=                           0.104964 (Hartree/Particle)
 Thermal correction to Energy=                    0.111456
 Thermal correction to Enthalpy=                  0.112400
 Thermal correction to Gibbs Free Energy=         0.075629
 Sum of electronic and zero-point Energies=           -269.390836
 Sum of electronic and thermal Energies=              -269.384343
 Sum of electronic and thermal Enthalpies=            -269.383399
 Sum of electronic and thermal Free Energies=         -269.420170

                     E (Thermal)             CV                S
                      KCal/Mol        Cal/Mol-Kelvin    Cal/Mol-Kelvin
 Total                   69.940             22.997             77.391
 Electronic               0.000              0.000              0.000
 Translational            0.889              2.981             38.902
 Rotational               0.889              2.981             26.060
 Vibrational             68.162             17.036             12.429
 Vibration     1          0.620              1.897              2.611
 Vibration     2          0.644              1.821              2.018
 Vibration     3          0.663              1.761              1.725
 Vibration     4          0.688              1.686              1.454
 Vibration     5          0.724              1.583              1.184
 Vibration     6          0.765              1.473              0.968
 Vibration     7          0.865              1.228              0.633
 Vibration     8          0.900              1.150              0.554
 Vibration     9          0.925              1.098              0.506

 Optimization completed.
    -- Stationary point found.
 Normal termination of Gaussian 09 at Fri Apr 27 11:09:58 2018.
