 Gaussian 09, Revision B.01,
 Gaussian 09:  EM64L-G09RevB.01 12-Aug-2010

 ----------------------------------------------------------------------
 # field=z+50 freq opt=(z-matrix,ts,calcfc,noeigen) nosymm rb3lyp/6-31+
 +g(d,p)
 ----------------------------------------------------------------------

 ------------
 OH-BACK-TERM
 ------------
 Symbolic Z-matrix:
 Charge =  0 Multiplicity = 1

 SCF Done:  E(RB3LYP) =  -269.489918150     A.U. after   15 cycles
 SCF Done:  E(RB3LYP) =  -269.493409273     A.U. after   14 cycles
 SCF Done:  E(RB3LYP) =  -269.487662976     A.U. after   14 cycles
 SCF Done:  E(RB3LYP) =  -269.490689595     A.U. after   14 cycles
 SCF Done:  E(RB3LYP) =  -269.492021690     A.U. after   13 cycles
 SCF Done:  E(RB3LYP) =  -269.492967378     A.U. after   12 cycles
 SCF Done:  E(RB3LYP) =  -269.491671699     A.U. after   13 cycles
 SCF Done:  E(RB3LYP) =  -269.491856677     A.U. after   13 cycles
 SCF Done:  E(RB3LYP) =  -269.492317402     A.U. after   13 cycles
 SCF Done:  E(RB3LYP) =  -269.491984349     A.U. after   12 cycles
 SCF Done:  E(RB3LYP) =  -269.492732696     A.U. after   11 cycles
 SCF Done:  E(RB3LYP) =  -269.492726949     A.U. after   11 cycles
 SCF Done:  E(RB3LYP) =  -269.492738576     A.U. after   11 cycles
 SCF Done:  E(RB3LYP) =  -269.492740326     A.U. after   11 cycles
 SCF Done:  E(RB3LYP) =  -269.492741940     A.U. after   10 cycles
 SCF Done:  E(RB3LYP) =  -269.492742931     A.U. after    9 cycles
 SCF Done:  E(RB3LYP) =  -269.492743395     A.U. after   10 cycles
 SCF Done:  E(RB3LYP) =  -269.492743657     A.U. after    9 cycles
 SCF Done:  E(RB3LYP) =  -269.492743739     A.U. after    9 cycles
 Optimization completed.
    -- Stationary point found.
 Normal termination of Gaussian 09 at Tue Mar  6 17:07:12 2018.

 ----------------------------------------------------------------------
 #N Geom=AllCheck Guess=TCheck SCRF=Check GenChk RB3LYP/6-31++G(d,p) Fr
 eq
 ----------------------------------------------------------------------

 OH-BACK-TERM
 ------------
 Z-Matrix taken from the checkpoint file:
 ts
 Charge =  0 Multiplicity = 1

                          Input orientation:
 ---------------------------------------------------------------------
 Center     Atomic      Atomic             Coordinates (Angstroms)
 Number     Number       Type             X           Y           Z
 ---------------------------------------------------------------------
      1          6           0        0.000000    0.000000    0.000000
      2          8           0        0.000000    0.000000    2.203291
      3          1           0        0.927750    0.000000    2.477847
      4          1           0       -0.198794   -0.968339    1.828663
      5          1           0        1.072662   -0.046112   -0.150672
      6          1           0       -0.430763    0.960666    0.255181
      7          1           0       -2.671943   -0.537902    0.505284
      8          1           0       -2.591984   -0.399181   -1.272816
      9          1           0       -2.781479   -1.990648   -0.509035
     10          1           0       -0.428519   -1.637772   -1.294547
     11          6           0       -2.303066   -1.012184   -0.410664
     12          6           0       -0.790702   -1.193153   -0.353249
     13          8           0       -0.316338   -1.913081    0.761654
 ---------------------------------------------------------------------

 SCF Done:  E(RB3LYP) =  -269.492743739     A.U. after    1 cycles

 Alpha  occ. eigenvalues --  -19.17351 -19.12441 -10.29576 -10.25253 -10.18475
 Alpha  occ. eigenvalues --   -1.02597  -0.97403  -0.77041  -0.71382  -0.59694
 Alpha  occ. eigenvalues --   -0.53886  -0.50090  -0.47645  -0.44204  -0.41545
 Alpha  occ. eigenvalues --   -0.39169  -0.37861  -0.36395  -0.34279  -0.25594
 Alpha  occ. eigenvalues --   -0.25325
 Alpha virt. eigenvalues --   -0.11468  -0.02990   0.00461   0.01289   0.02099
 Alpha virt. eigenvalues --    0.03970   0.04104   0.05017   0.05889   0.07116
 Alpha virt. eigenvalues --    0.09300   0.09655   0.10806   0.12337   0.12555

 Mulliken atomic charges:
              1
     1  C   -0.191203
     2  O   -0.702991
     3  H    0.346158
     4  H    0.449305
     5  H    0.204756
     6  H    0.207036
     7  H    0.153810
     8  H    0.156447
     9  H    0.173206
    10  H    0.153377
    11  C   -0.553653
    12  C    0.183612
    13  O   -0.579860
 Sum of Mulliken atomic charges =   0.00000

 Dipole moment (field-independent basis, Debye):
    X=              1.0731    Y=              2.3264    Z=             -3.0061  Tot=              3.9497
 Quadrupole moment (field-independent basis, Debye-Ang):
   XX=            -29.1866   YY=            -39.2378   ZZ=            -35.5224
   XY=              0.7321   XZ=              4.6922   YZ=              2.4271

  Exact polarizability:  51.364   5.542  55.849   6.286   3.570  60.810
 Approx polarizability:  63.741   9.433  98.979   3.396  -2.670  86.291

 ******    1 imaginary frequencies (negative Signs) ******

                     1                      2                      3
                     A                      A                      A
 Frequencies --  -603.3063                73.1521               238.4424
 Red. masses --     3.3014                 3.8722                 1.0426
 Frc consts  --     0.7080                 0.0122                 0.0349
 IR Inten    --    40.0882                 0.6524                 0.6984

                     4                      5                      6
                     A                      A                      A
 Frequencies --   344.6914               423.2377               427.4919
 Red. masses --     2.1415                 3.8174                 2.9507
 Frc consts  --     0.1499                 0.4029                 0.3177
 IR Inten    --     8.1145                66.5768                48.0466

                     7                      8                      9
                     A                      A                      A
 Frequencies --   479.8885               520.6643               543.0854
 Red. masses --     3.0945                 1.1531                 1.2535
 Frc consts  --     0.4199                 0.1842                 0.2178
 IR Inten    --    93.8108                69.6252                66.6372

                    10                     11                     12
                     A                      A                      A
 Frequencies --   764.6085               844.8487               913.7193
 Red. masses --     1.1253                 2.3167                 2.2212
 Frc consts  --     0.3876                 0.9743                 1.0926
 IR Inten    --     2.8713                10.5900                57.6801

                    13                     14                     15
                     A                      A                      A
 Frequencies --   917.5798              1050.9276              1084.0495
 Red. masses --     1.1740                 1.2800                 1.2825
 Frc consts  --     0.5824                 0.8329                 0.8880
 IR Inten    --     3.0647                 1.2688               391.8939

                    16                     17                     18
                     A                      A                      A
 Frequencies --  1135.4241              1171.2021              1182.1780
 Red. masses --     2.0816                 1.7486                 1.9138
 Frc consts  --     1.5811                 1.4132                 1.5759
 IR Inten    --     8.1539                31.4891                15.9206

                    19                     20                     21
                     A                      A                      A
 Frequencies --  1278.1259              1379.6899              1412.3808
 Red. masses --     1.2139                 1.3901                 1.3566
 Frc consts  --     1.1684                 1.5591                 1.5944
 IR Inten    --     5.9136                 4.5550                17.4982

                    22                     23                     24
                     A                      A                      A
 Frequencies --  1479.2032              1495.8009              1499.4885
 Red. masses --     1.1036                 1.0971                 1.1312
 Frc consts  --     1.4227                 1.4463                 1.4985
 IR Inten    --     8.3274                 6.3968                 5.0832

                    25                     26                     27
                     A                      A                      A
 Frequencies --  1617.2208              2120.5863              2981.5620
 Red. masses --     1.0575                 1.1082                 1.0813
 Frc consts  --     1.6296                 2.9362                 5.6637
 IR Inten    --    63.9971               436.5643                27.2955

                    28                     29                     30
                     A                      A                      A
 Frequencies --  3036.5015              3108.5311              3128.9893
 Red. masses --     1.0362                 1.1025                 1.1014
 Frc consts  --     5.6292                 6.2769                 6.3534
 IR Inten    --    16.3517                23.8993                14.3870

                    31                     32                     33
                     A                      A                      A
 Frequencies --  3180.2918              3296.6900              3832.6807
 Red. masses --     1.0530                 1.1214                 1.0658
 Frc consts  --     6.2749                 7.1807                 9.2238
 IR Inten    --     2.2739                 0.8773                45.7260

 - Thermochemistry -
 -------------------
 Temperature   298.150 Kelvin.  Pressure   1.00000 Atm.
 Atom     1 has atomic number  6 and mass  12.00000

 Molecular mass:    76.05243 amu.
 Principal axes and moments of inertia in atomic units:
                           1         2         3
     Eigenvalues --   242.39288 561.11015 586.17541
           X            0.59668  -0.18361   0.78119
           Y            0.32476   0.94544  -0.02584
           Z            0.73383  -0.26912  -0.62376
 This molecule is an asymmetric top.
 Rotational symmetry number  1.
 Rotational temperatures (Kelvin)      0.35733     0.15436     0.14776
 Rotational constants (GHZ):           7.44552     3.21638     3.07884
    1 imaginary frequencies ignored.
 Zero-point vibrational energy     280900.7 (Joules/Mol)
                                   67.13688 (Kcal/Mol)
 Warning -- explicit consideration of   8 degrees of freedom as
           vibrations may cause significant error
 Vibrational temperatures:    105.25   343.06   495.93   608.94   615.06
          (Kelvin)            690.45   749.12   781.38  1100.10  1215.55
                             1314.64  1320.19  1512.05  1559.70  1633.62
                             1685.10  1700.89  1838.94  1985.06  2032.10
                             2128.24  2152.12  2157.43  2326.82  3051.05
                             4289.80  4368.84  4472.48  4501.91  4575.72
                             4743.20  5514.37

 Zero-point correction=                           0.106989 (Hartree/Particle)
 Thermal correction to Energy=                    0.113112
 Thermal correction to Enthalpy=                  0.114056
 Thermal correction to Gibbs Free Energy=         0.077683
 Sum of electronic and zero-point Energies=           -269.385754
 Sum of electronic and thermal Energies=              -269.379632
 Sum of electronic and thermal Enthalpies=            -269.378688
 Sum of electronic and thermal Free Energies=         -269.415060

                     E (Thermal)             CV                S
                      KCal/Mol        Cal/Mol-Kelvin    Cal/Mol-Kelvin
 Total                   70.979             22.003             76.553
 Electronic               0.000              0.000              0.000
 Translational            0.889              2.981             38.902
 Rotational               0.889              2.981             25.881
 Vibrational             69.201             16.041             11.770
 Vibration     1          0.599              1.967              4.067
 Vibration     2          0.656              1.782              1.814
 Vibration     3          0.723              1.586              1.190
 Vibration     4          0.785              1.420              0.881
 Vibration     5          0.789              1.410              0.867
 Vibration     6          0.836              1.295              0.710
 Vibration     7          0.876              1.204              0.608
 Vibration     8          0.898              1.155              0.559

 Optimization completed.
    -- Stationary point found.
 Normal termination of Gaussian 09 at Tue Mar  6 17:07:38 2018.
