 Gaussian 09, Revision B.01,
 Gaussian 09:  EM64L-G09RevB.01 12-Aug-2010

 ----------------------------------------------------------------------
 # field=z+50 opt=(ts,noeigen,calcfc,z-matrix,tight) freq b3lyp/6-31++g
 (d,p)
 ----------------------------------------------------------------------

 -------------
 H3O-BACK-TERM
 -------------
 Symbolic Z-matrix:
 Charge =  1 Multiplicity = 1

 SCF Done:  E(RB3LYP) =  -269.880835737     A.U. after   12 cycles
 SCF Done:  E(RB3LYP) =  -269.881504310     A.U. after   10 cycles
 SCF Done:  E(RB3LYP) =  -269.881948534     A.U. after   10 cycles
 SCF Done:  E(RB3LYP) =  -269.882310000     A.U. after   10 cycles
 SCF Done:  E(RB3LYP) =  -269.882678814     A.U. after   10 cycles
 SCF Done:  E(RB3LYP) =  -269.882442293     A.U. after   10 cycles
 SCF Done:  E(RB3LYP) =  -269.883296199     A.U. after   10 cycles
 SCF Done:  E(RB3LYP) =  -269.883368970     A.U. after   10 cycles
 SCF Done:  E(RB3LYP) =  -269.883708057     A.U. after   10 cycles
 SCF Done:  E(RB3LYP) =  -269.883893145     A.U. after   10 cycles
 SCF Done:  E(RB3LYP) =  -269.886808757     A.U. after    8 cycles
 SCF Done:  E(RB3LYP) =  -269.886803134     A.U. after    8 cycles
 SCF Done:  E(RB3LYP) =  -269.886684290     A.U. after   10 cycles
 SCF Done:  E(RB3LYP) =  -269.886792205     A.U. after   10 cycles
 SCF Done:  E(RB3LYP) =  -269.886796352     A.U. after    8 cycles
 SCF Done:  E(RB3LYP) =  -269.886795816     A.U. after    7 cycles
 SCF Done:  E(RB3LYP) =  -269.886795675     A.U. after    6 cycles
 SCF Done:  E(RB3LYP) =  -269.886795569     A.U. after    5 cycles
 SCF Done:  E(RB3LYP) =  -269.886795542     A.U. after    5 cycles
 Optimization completed.
    -- Stationary point found.
 Normal termination of Gaussian 09 at Thu Apr 26 21:52:48 2018.

 ----------------------------------------------------------------------
 #N Geom=AllCheck Guess=TCheck SCRF=Check GenChk RB3LYP/6-31++G(d,p) Fr
 eq
 ----------------------------------------------------------------------

 H3O-BACK-TERM
 -------------
 Z-Matrix taken from the checkpoint file:
 H3O-term-field-2.chk
 Charge =  1 Multiplicity = 1

                         Standard orientation:
 ---------------------------------------------------------------------
 Center     Atomic      Atomic             Coordinates (Angstroms)
 Number     Number       Type             X           Y           Z
 ---------------------------------------------------------------------
      1          6           0       -0.344561   -0.784724   -0.200101
      2          8           0       -2.255874    0.119614    0.108609
      3          1           0        0.208064    2.183702    0.272331
      4          1           0        1.930993    1.786768    0.189710
      5          1           0        0.662830    0.049595    1.526790
      6          1           0        1.780134   -1.608864    0.474044
      7          1           0       -0.704902   -1.661503    0.323663
      8          1           0       -3.022672   -0.468663    0.017127
      9          1           0       -2.442743    0.882623   -0.462366
     10          1           0       -0.485421   -0.727919   -1.272681
     11          6           0        0.934072    1.465642   -0.123331
     12          6           0        0.635273    0.104065    0.438034
     13          8           0        1.484904   -0.946748   -0.176187
     14          1           0        0.892763    1.471438   -1.215601
 ---------------------------------------------------------------------

 SCF Done:  E(RB3LYP) =  -269.886795542     A.U. after    1 cycles

 The electronic state is 1-A.
 Alpha  occ. eigenvalues --  -19.41841 -19.38472 -10.48734 -10.46761 -10.35821
 Alpha  occ. eigenvalues --   -1.27863  -1.23177  -0.99386  -0.90328  -0.80338
 Alpha  occ. eigenvalues --   -0.76469  -0.74700  -0.66923  -0.65967  -0.63005
 Alpha  occ. eigenvalues --   -0.60370  -0.58746  -0.55982  -0.55148  -0.54155
 Alpha  occ. eigenvalues --   -0.51860
 Alpha virt. eigenvalues --   -0.24662  -0.18125  -0.15488  -0.13044  -0.12773
 Alpha virt. eigenvalues --   -0.10841  -0.09639  -0.08922  -0.08163  -0.07517
 Alpha virt. eigenvalues --   -0.06234  -0.04688  -0.04351  -0.03746  -0.02850

 Mulliken atomic charges:
              1
     1  C   -0.029300
     2  O   -0.649799
     3  H    0.180096
     4  H    0.201538
     5  H    0.190715
     6  H    0.432327
     7  H    0.214259
     8  H    0.419785
     9  H    0.409529
    10  H    0.275829
    11  C   -0.447543
    12  C   -0.072934
    13  O   -0.336580
    14  H    0.212077
 Sum of Mulliken atomic charges =   1.00000

 Dipole moment (field-independent basis, Debye):
    X=             -2.3459    Y=             -1.5492    Z=             -0.1804  Tot=              2.8170
 Quadrupole moment (field-independent basis, Debye-Ang):
   XX=            -12.8118   YY=            -20.5122   ZZ=            -27.8632
   XY=             -0.5498   XZ=              6.3498   YZ=             -3.2373

  Exact polarizability:  58.348  -2.192  46.230   1.033  -0.359  37.858
 Approx polarizability:  81.119  -7.011  59.687  -0.312   0.063  52.364

 ******    1 imaginary frequencies (negative Signs) ******

                     1                      2                      3
                     A                      A                      A
 Frequencies --  -305.2008               106.5387               152.2972
 Red. masses --     6.3450                 1.5627                 1.6073
 Frc consts  --     0.3482                 0.0105                 0.0220
 IR Inten    --   299.6071                28.7917                37.6123

                     4                      5                      6
                     A                      A                      A
 Frequencies --   186.2439               235.1621               291.2108
 Red. masses --     1.8276                 1.3874                 6.1566
 Frc consts  --     0.0374                 0.0452                 0.3076
 IR Inten    --     2.8535                 1.2945                11.7872

                     7                      8                      9
                     A                      A                      A
 Frequencies --   378.8809               409.7857               516.7841
 Red. masses --     2.0455                 2.4231                 1.2302
 Frc consts  --     0.1730                 0.2397                 0.1936
 IR Inten    --     5.0587                 9.5285               244.2501

                    10                     11                     12
                     A                      A                      A
 Frequencies --   546.1449               667.6421               824.2951
 Red. masses --     1.1255                 1.1512                 3.1900
 Frc consts  --     0.1978                 0.3023                 1.2770
 IR Inten    --    27.9947                84.5203                61.7427

                    13                     14                     15
                     A                      A                      A
 Frequencies --   861.8725               906.2584              1008.8091
 Red. masses --     1.6183                 1.5526                 1.0816
 Frc consts  --     0.7083                 0.7513                 0.6485
 IR Inten    --    12.5300                25.2179                 6.2105

                    16                     17                     18
                     A                      A                      A
 Frequencies --  1034.5969              1095.5216              1158.3251
 Red. masses --     1.2069                 1.4805                 1.1694
 Frc consts  --     0.7611                 1.0469                 0.9244
 IR Inten    --     6.4500                55.4018                 7.6294

                    19                     20                     21
                     A                      A                      A
 Frequencies --  1222.2931              1239.2481              1303.7765
 Red. masses --     1.4891                 1.6444                 1.4335
 Frc consts  --     1.3108                 1.4879                 1.4357
 IR Inten    --     3.7728                13.9460                 7.3504

                    22                     23                     24
                     A                      A                      A
 Frequencies --  1407.4320              1441.0362              1477.3795
 Red. masses --     1.2482                 1.3971                 1.0901
 Frc consts  --     1.4568                 1.7094                 1.4018
 IR Inten    --     1.4932                15.2195                12.3848

                    25                     26                     27
                     A                      A                      A
 Frequencies --  1496.8856              1504.6697              1643.0128
 Red. masses --     1.0608                 1.3791                 1.0842
 Frc consts  --     1.4004                 1.8396                 1.7245
 IR Inten    --    18.7996                17.4883                97.5262

                    28                     29                     30
                     A                      A                      A
 Frequencies --  3059.9529              3135.7980              3141.9326
 Red. masses --     1.0363                 1.0999                 1.0966
 Frc consts  --     5.7170                 6.3722                 6.3780
 IR Inten    --     0.6631                 0.9153                 2.2641

                    31                     32                     33
                     A                      A                      A
 Frequencies --  3157.6995              3199.0981              3326.1665
 Red. masses --     1.1011                 1.0537                 1.1272
 Frc consts  --     6.4685                 6.3539                 7.3475
 IR Inten    --     2.8497                 5.0859                 9.0097

                    34                     35                     36
                     A                      A                      A
 Frequencies --  3747.1189              3751.6834              3849.6621
 Red. masses --     1.0489                 1.0633                 1.0837
 Frc consts  --     8.6772                 8.8180                 9.4623
 IR Inten    --   233.1181                67.5423               146.2633

 - Thermochemistry -
 -------------------
 Temperature   298.150 Kelvin.  Pressure   1.00000 Atm.
 Atom     1 has atomic number  6 and mass  12.00000

 Molecular mass:    77.06025 amu.
 Principal axes and moments of inertia in atomic units:
                           1         2         3
     Eigenvalues --   266.33842 597.90869 795.02506
           X            0.99926   0.03428   0.01727
           Y           -0.03380   0.99906  -0.02724
           Z           -0.01818   0.02664   0.99948
 This molecule is an asymmetric top.
 Rotational symmetry number  1.
 Rotational temperatures (Kelvin)      0.32520     0.14486     0.10894
 Rotational constants (GHZ):           6.77612     3.01842     2.27004
    1 imaginary frequencies ignored.
 Zero-point vibrational energy     319912.6 (Joules/Mol)
                                   76.46095 (Kcal/Mol)
 Warning -- explicit consideration of   9 degrees of freedom as
           vibrations may cause significant error
 Vibrational temperatures:    153.29   219.12   267.96   338.35   418.99
          (Kelvin)            545.12   589.59   743.54   785.78   960.59
                             1185.98  1240.04  1303.90  1451.45  1488.55
                             1576.21  1666.57  1758.61  1783.00  1875.84
                             2024.98  2073.33  2125.62  2153.68  2164.88
                             2363.93  4402.58  4511.71  4520.53  4543.22
                             4602.78  4785.61  5391.26  5397.83  5538.80

 Zero-point correction=                           0.121848 (Hartree/Particle)
 Thermal correction to Energy=                    0.129097
 Thermal correction to Enthalpy=                  0.130041
 Thermal correction to Gibbs Free Energy=         0.091431
 Sum of electronic and zero-point Energies=           -269.764947
 Sum of electronic and thermal Energies=              -269.757699
 Sum of electronic and thermal Enthalpies=            -269.756755
 Sum of electronic and thermal Free Energies=         -269.795364

                     E (Thermal)             CV                S
                      KCal/Mol        Cal/Mol-Kelvin    Cal/Mol-Kelvin
 Total                   81.009             25.231             81.261
 Electronic               0.000              0.000              0.000
 Translational            0.889              2.981             38.941
 Rotational               0.889              2.981             26.340
 Vibrational             79.232             19.270             15.979
 Vibration     1          0.605              1.944              3.331
 Vibration     2          0.619              1.900              2.643
 Vibration     3          0.632              1.859              2.265
 Vibration     4          0.655              1.787              1.839
 Vibration     5          0.687              1.690              1.467
 Vibration     6          0.749              1.515              1.044
 Vibration     7          0.774              1.449              0.927
 Vibration     8          0.872              1.213              0.617
 Vibration     9          0.901              1.148              0.552

 Optimization completed.
    -- Stationary point found.
 Normal termination of Gaussian 09 at Thu Apr 26 21:53:18 2018.
