 Gaussian 09, Revision B.01,
 Gaussian 09:  EM64L-G09RevB.01 12-Aug-2010

 ----------------------------------------------------------------------
 # opt=(calcall,ts,z-matrix,noeigen,maxcycle=300) b3lyp/6-31++g(d,p) no
 symm field=z+50 freq
 ----------------------------------------------------------------------

 -------------------
 Title Card Required
 -------------------
 Symbolic Z-matrix:
 Charge =  1 Multiplicity = 1

 SCF Done:  E(RB3LYP) =  -269.886532005     A.U. after   12 cycles
 SCF Done:  E(RB3LYP) =  -269.886480687     A.U. after   11 cycles
 SCF Done:  E(RB3LYP) =  -269.886663061     A.U. after   11 cycles
 SCF Done:  E(RB3LYP) =  -269.886684943     A.U. after   10 cycles
 SCF Done:  E(RB3LYP) =  -269.886687086     A.U. after    9 cycles
 Optimization completed.
    -- Stationary point found.
 ******    1 imaginary frequencies (negative Signs) ******
    1 imaginary frequencies ignored.
 Normal termination of Gaussian 09 at Thu Mar  8 14:07:27 2018.

 ----------------------------------------------------------------------
 #N Geom=AllCheck Guess=TCheck SCRF=Check GenChk RB3LYP/6-31++G(d,p) Fr
 eq
 ----------------------------------------------------------------------

 Title Card Required
 -------------------
 Z-Matrix taken from the checkpoint file:
 H3O-mid-field-3.chk
 Charge =  1 Multiplicity = 1

                          Input orientation:
 ---------------------------------------------------------------------
 Center     Atomic      Atomic             Coordinates (Angstroms)
 Number     Number       Type             X           Y           Z
 ---------------------------------------------------------------------
      1          6           0        0.000000    0.000000    0.000000
      2          8           0        0.000000    0.000000    2.310738
      3          1           0        2.196177    0.000000    0.038161
      4          1           0        1.449206   -1.624842   -0.259029
      5          1           0        0.562565    0.562826    2.861221
      6          1           0       -0.143987   -0.819846    2.804324
      7          1           0       -0.066352    1.079480    0.110039
      8          1           0        1.407702    0.607111   -2.006182
      9          1           0       -1.685230   -0.518049   -1.130759
     10          1           0       -1.106430   -1.842884   -0.094995
     11          1           0       -1.980109   -0.417962    0.590602
     12          6           0        1.330342   -0.544961   -0.335721
     13          6           0       -1.251955   -0.762466   -0.149681
     14          8           0        0.958358   -0.199180   -1.693510
 ---------------------------------------------------------------------

 SCF Done:  E(RB3LYP) =  -269.886687086     A.U. after    1 cycles

 Alpha  occ. eigenvalues --  -19.40048 -19.38029 -10.49631 -10.45436 -10.37778
 Alpha  occ. eigenvalues --   -1.26181  -1.22992  -1.00455  -0.90532  -0.80084
 Alpha  occ. eigenvalues --   -0.74949  -0.74506  -0.67657  -0.66457  -0.62950
 Alpha  occ. eigenvalues --   -0.60087  -0.58317  -0.57361  -0.55857  -0.53572
 Alpha  occ. eigenvalues --   -0.50929
 Alpha virt. eigenvalues --   -0.27296  -0.18755  -0.15525  -0.13177  -0.12327
 Alpha virt. eigenvalues --   -0.11999  -0.10290  -0.09237  -0.07800  -0.07320
 Alpha virt. eigenvalues --   -0.05656  -0.04615  -0.04110  -0.03369  -0.02440

 Mulliken atomic charges:
              1
     1  C    0.206456
     2  O   -0.688002
     3  H    0.193324
     4  H    0.226711
     5  H    0.403743
     6  H    0.390363
     7  H    0.247080
     8  H    0.434272
     9  H    0.252624
    10  H    0.215790
    11  H    0.218950
    12  C   -0.162742
    13  C   -0.567438
    14  O   -0.371131
 Sum of Mulliken atomic charges =   1.00000

 Dipole moment (field-independent basis, Debye):
    X=              2.4403    Y=             -0.2894    Z=              1.5430  Tot=              2.9017
 Quadrupole moment (field-independent basis, Debye-Ang):
   XX=            -20.9024   YY=            -24.5232   ZZ=            -15.1645
   XY=              3.1252   XZ=             -0.3310   YZ=             -3.7843

  Exact polarizability:  48.886   1.972  39.769  -4.453   0.100  54.540
 Approx polarizability:  62.560   2.158  54.876  -7.475   0.040  76.517

 ******    1 imaginary frequencies (negative Signs) ******

                     1                      2                      3
                     A                      A                      A
 Frequencies --  -201.0252               101.7404               131.2541
 Red. masses --     2.8822                 1.1709                 1.8656
 Frc consts  --     0.0686                 0.0071                 0.0189
 IR Inten    --    74.9424                16.9511                11.9220

                     4                      5                      6
                     A                      A                      A
 Frequencies --   150.8771               154.1632               215.4395
 Red. masses --     3.1514                 1.4124                 5.7949
 Frc consts  --     0.0423                 0.0198                 0.1585
 IR Inten    --    14.4167                21.0304                 7.1105

                     7                      8                      9
                     A                      A                      A
 Frequencies --   268.6531               300.7838               396.0479
 Red. masses --     1.4872                 1.8138                 1.6562
 Frc consts  --     0.0632                 0.0967                 0.1531
 IR Inten    --   244.9082                74.5092                14.4314

                    10                     11                     12
                     A                      A                      A
 Frequencies --   425.4526               561.7447               852.4719
 Red. masses --     1.2958                 1.1496                 2.3752
 Frc consts  --     0.1382                 0.2137                 1.0170
 IR Inten    --    38.4138               105.9620                12.4996

                    13                     14                     15
                     A                      A                      A
 Frequencies --   896.8949               959.6958               985.3044
 Red. masses --     1.1580                 1.3836                 2.9472
 Frc consts  --     0.5488                 0.7508                 1.6858
 IR Inten    --    20.9610                11.8072                35.6902

                    16                     17                     18
                     A                      A                      A
 Frequencies --  1042.1393              1084.7352              1212.2213
 Red. masses --     1.1576                 1.2983                 1.7777
 Frc consts  --     0.7407                 0.9000                 1.5391
 IR Inten    --    81.6471                12.5030                 6.2443

                    19                     20                     21
                     A                      A                      A
 Frequencies --  1228.3159              1291.6830              1324.8735
 Red. masses --     1.8511                 1.1947                 1.2765
 Frc consts  --     1.6455                 1.1745                 1.3201
 IR Inten    --     5.6467                25.3381                 4.7647

                    22                     23                     24
                     A                      A                      A
 Frequencies --  1376.9989              1409.1648              1456.9012
 Red. masses --     1.1816                 1.3977                 1.0632
 Frc consts  --     1.3201                 1.6353                 1.3296
 IR Inten    --    60.6380                20.8963                 5.8098

                    25                     26                     27
                     A                      A                      A
 Frequencies --  1506.3951              1526.8725              1622.7244
 Red. masses --     1.2491                 1.1938                 1.0887
 Frc consts  --     1.6701                 1.6398                 1.6890
 IR Inten    --    17.1157                 4.6764                74.4658

                    28                     29                     30
                     A                      A                      A
 Frequencies --  3036.7813              3107.4297              3124.9864
 Red. masses --     1.0453                 1.0860                 1.0571
 Frc consts  --     5.6794                 6.1788                 6.0823
 IR Inten    --    32.1808                 4.4982                 2.1993

                    31                     32                     33
                     A                      A                      A
 Frequencies --  3164.9175              3202.8615              3224.0579
 Red. masses --     1.1068                 1.1154                 1.0954
 Frc consts  --     6.5320                 6.7414                 6.7086
 IR Inten    --     2.7465                 0.1298                 3.1840

                    34                     35                     36
                     A                      A                      A
 Frequencies --  3740.3241              3782.8832              3899.4411
 Red. masses --     1.0682                 1.0437                 1.0843
 Frc consts  --     8.8046                 8.8001                 9.7145
 IR Inten    --   240.4122                58.8906               118.1997

 - Thermochemistry -
 -------------------
 Temperature   298.150 Kelvin.  Pressure   1.00000 Atm.
 Atom     1 has atomic number  6 and mass  12.00000

 Molecular mass:    77.06025 amu.
 Principal axes and moments of inertia in atomic units:
                           1         2         3
     Eigenvalues --   255.84024 630.59772 803.83506
           X           -0.30797   0.93349  -0.18370
           Y            0.04892   0.20837   0.97683
           Z            0.95014   0.29185  -0.10984
 This molecule is an asymmetric top.
 Rotational symmetry number  1.
 Rotational temperatures (Kelvin)      0.33855     0.13735     0.10775
 Rotational constants (GHZ):           7.05417     2.86195     2.24516
    1 imaginary frequencies ignored.
 Zero-point vibrational energy     315618.1 (Joules/Mol)
                                   75.43454 (Kcal/Mol)
 Warning -- explicit consideration of  10 degrees of freedom as
           vibrations may cause significant error
 Vibrational temperatures:    146.38   188.85   217.08   221.81   309.97
          (Kelvin)            386.53   432.76   569.82   612.13   808.22
                             1226.52  1290.43  1380.79  1417.63  1499.40
                             1560.69  1744.11  1767.27  1858.44  1906.20
                             1981.19  2027.47  2096.15  2167.36  2196.83
                             2334.74  4369.25  4470.89  4496.15  4553.60
                             4608.20  4638.69  5381.49  5442.72  5610.42

 Zero-point correction=                           0.120213 (Hartree/Particle)
 Thermal correction to Energy=                    0.128274
 Thermal correction to Enthalpy=                  0.129218
 Thermal correction to Gibbs Free Energy=         0.088739
 Sum of electronic and zero-point Energies=           -269.766474
 Sum of electronic and thermal Energies=              -269.758413
 Sum of electronic and thermal Enthalpies=            -269.757469
 Sum of electronic and thermal Free Energies=         -269.797948

                     E (Thermal)             CV                S
                      KCal/Mol        Cal/Mol-Kelvin    Cal/Mol-Kelvin
 Total                   80.493             26.543             85.194
 Electronic               0.000              0.000              0.000
 Translational            0.889              2.981             38.941
 Rotational               0.889              2.981             26.364
 Vibrational             78.715             20.581             19.889
 Vibration     1          0.604              1.948              3.421
 Vibration     2          0.612              1.922              2.928
 Vibration     3          0.618              1.902              2.661
 Vibration     4          0.620              1.898              2.620
 Vibration     5          0.645              1.817              1.997
 Vibration     6          0.673              1.731              1.605
 Vibration     7          0.693              1.672              1.413
 Vibration     8          0.763              1.479              0.977
 Vibration     9          0.787              1.415              0.874
 Vibration    10          0.917              1.114              0.520

 Optimization completed.
    -- Stationary point found.
 Normal termination of Gaussian 09 at Thu Mar  8 14:07:58 2018.
