 Gaussian 09, Revision B.01,
 Gaussian 09:  EM64L-G09RevB.01 12-Aug-2010

 ----------------------------------------------------------------------
 # field=z+50 opt=(calcall,ts,noeigen,z-matrix) nosymm freq b3lyp/6-31+
 +g(d,p)
 ----------------------------------------------------------------------

 -----------
 OH-BACK-MID
 -----------
 Symbolic Z-matrix:
 Charge = -1 Multiplicity = 1

 SCF Done:  E(RB3LYP) =  -268.942531990     A.U. after   15 cycles
 SCF Done:  E(RB3LYP) =  -268.943998199     A.U. after   12 cycles
 SCF Done:  E(RB3LYP) =  -268.944700673     A.U. after   12 cycles
 SCF Done:  E(RB3LYP) =  -268.945123148     A.U. after   12 cycles
 SCF Done:  E(RB3LYP) =  -268.945903689     A.U. after   12 cycles
 SCF Done:  E(RB3LYP) =  -268.947136221     A.U. after   13 cycles
 SCF Done:  E(RB3LYP) =  -268.947741976     A.U. after   13 cycles
 SCF Done:  E(RB3LYP) =  -268.947828021     A.U. after   12 cycles
 SCF Done:  E(RB3LYP) =  -268.947828458     A.U. after   10 cycles
 Optimization completed.
    -- Stationary point found.
 ******    2 imaginary frequencies (negative Signs) ******
    2 imaginary frequencies ignored.
 Normal termination of Gaussian 09 at Tue Mar  6 17:09:56 2018.

 ----------------------------------------------------------------------
 #N Geom=AllCheck Guess=TCheck SCRF=Check GenChk RB3LYP/6-31++G(d,p) Fr
 eq
 ----------------------------------------------------------------------

 OH-BACK-MID
 -----------
 Z-Matrix taken from the checkpoint file:
 OH-mid-10.chk
 Charge = -1 Multiplicity = 1

                          Input orientation:
 ---------------------------------------------------------------------
 Center     Atomic      Atomic             Coordinates (Angstroms)
 Number     Number       Type             X           Y           Z
 ---------------------------------------------------------------------
      1          6           0        0.000000    0.000000    0.000000
      2          8           0        0.000000    0.000000    2.246546
      3          6           0        1.400076    0.000000   -0.377554
      4          6           0       -0.805690   -1.270518    0.122721
      5          1           0        0.671111    0.644663    2.520686
      6          1           0       -0.453944    0.934873    0.285326
      7          1           0        2.029458    0.857841   -0.107105
      8          1           0        1.949974   -0.949124   -0.342498
      9          1           0       -0.291413   -1.975553    0.782100
     10          1           0       -0.964145   -1.717097   -0.866006
     11          1           0       -1.772698   -1.054076    0.585279
     12          8           0        0.543987    0.179147   -1.496173
 ---------------------------------------------------------------------

 SCF Done:  E(RB3LYP) =  -268.947828458     A.U. after    1 cycles

 Alpha  occ. eigenvalues --  -18.96528 -18.86643 -10.07012 -10.06610 -10.01803
 Alpha  occ. eigenvalues --   -0.85190  -0.67209  -0.57324  -0.49061  -0.42021
 Alpha  occ. eigenvalues --   -0.32713  -0.28675  -0.25544  -0.23440  -0.20057
 Alpha  occ. eigenvalues --   -0.18270  -0.15845  -0.12945  -0.08709  -0.02483
 Alpha  occ. eigenvalues --   -0.01730
 Alpha virt. eigenvalues --    0.10826   0.12266   0.13055   0.13888   0.15372
 Alpha virt. eigenvalues --    0.15988   0.16501   0.19373   0.21049   0.22057
 Alpha virt. eigenvalues --    0.23509   0.24903   0.25424   0.26442   0.27002

 Mulliken atomic charges:
              1
     1  C    0.280907
     2  O   -0.980248
     3  C   -0.154352
     4  C   -0.685314
     5  H    0.200733
     6  H    0.187762
     7  H    0.072989
     8  H    0.103661
     9  H    0.158977
    10  H    0.136458
    11  H    0.130728
    12  O   -0.452300
 Sum of Mulliken atomic charges =  -1.00000

 Dipole moment (field-independent basis, Debye):
    X=              0.2464    Y=              0.5850    Z=             -5.7449  Tot=              5.7798
 Quadrupole moment (field-independent basis, Debye-Ang):
   XX=            -35.2304   YY=            -35.7435   ZZ=            -65.4302
   XY=              0.3889   XZ=              3.7694   YZ=              2.9891

  Exact polarizability:  63.403   0.845  59.594  -2.760   2.038  79.092
 Approx polarizability:  80.131  -0.794  74.310  -1.412   0.512 100.084

 ******    2 imaginary frequencies (negative Signs) ******

                     1                      2                      3
                     A                      A                      A
 Frequencies --  -218.8030              -128.5557               158.2969
 Red. masses --     4.1123                 1.1107                 2.1744
 Frc consts  --     0.1160                 0.0108                 0.0321
 IR Inten    --   354.8076                27.7366                82.8293

                     4                      5                      6
                     A                      A                      A
 Frequencies --   173.6042               226.6829               343.8665
 Red. masses --     1.9718                 1.9479                 4.6899
 Frc consts  --     0.0350                 0.0590                 0.3267
 IR Inten    --    46.0950                20.8612                 8.8041

                     7                      8                      9
                     A                      A                      A
 Frequencies --   385.5340               397.5553               409.2182
 Red. masses --     1.4889                 2.3882                 2.4936
 Frc consts  --     0.1304                 0.2224                 0.2460
 IR Inten    --   142.8413                32.8260                 7.3384

                    10                     11                     12
                     A                      A                      A
 Frequencies --   854.0165               933.0208              1006.6991
 Red. masses --     2.0015                 1.2679                 1.6259
 Frc consts  --     0.8601                 0.6503                 0.9708
 IR Inten    --    26.1011                 4.1785                38.0399

                    13                     14                     15
                     A                      A                      A
 Frequencies --  1023.7776              1068.0762              1125.1805
 Red. masses --     1.4604                 1.5926                 1.2844
 Frc consts  --     0.9019                 1.0704                 0.9581
 IR Inten    --     7.5007                49.0880                 2.4421

                    16                     17                     18
                     A                      A                      A
 Frequencies --  1156.9217              1182.1329              1277.4522
 Red. masses --     1.7491                 1.3926                 1.3704
 Frc consts  --     1.3793                 1.1466                 1.3176
 IR Inten    --     0.3245                11.3177                 3.5994

                    19                     20                     21
                     A                      A                      A
 Frequencies --  1380.6953              1437.2430              1473.5580
 Red. masses --     1.2775                 1.8727                 1.0604
 Frc consts  --     1.4348                 2.2791                 1.3566
 IR Inten    --     6.4876                24.1265                 4.2281

                    22                     23                     24
                     A                      A                      A
 Frequencies --  1483.6112              1539.5988              3000.2185
 Red. masses --     1.0452                 1.4096                 1.0509
 Frc consts  --     1.3554                 1.9686                 5.5735
 IR Inten    --     3.5566                 7.7703               115.4900

                    25                     26                     27
                     A                      A                      A
 Frequencies --  3033.9709              3052.5652              3106.6876
 Red. masses --     1.0374                 1.1147                 1.0996
 Frc consts  --     5.6263                 6.1200                 6.2526
 IR Inten    --    46.0478                99.9407                34.3478

                    28                     29                     30
                     A                      A                      A
 Frequencies --  3116.0644              3266.7159              3755.2535
 Red. masses --     1.1008                 1.0929                 1.0671
 Frc consts  --     6.2976                 6.8717                 8.8665
 IR Inten    --    32.9753                13.5809                51.1684

 - Thermochemistry -
 -------------------
 Temperature   298.150 Kelvin.  Pressure   1.00000 Atm.
 Atom     1 has atomic number  6 and mass  12.00000

 Molecular mass:    75.04460 amu.
 Principal axes and moments of inertia in atomic units:
                           1         2         3
     Eigenvalues --   235.25928 512.96354 662.37312
           X           -0.27344   0.75834  -0.59174
           Y           -0.07685   0.59599   0.79931
           Z            0.95882   0.26403  -0.10469
 This molecule is an asymmetric top.
 Rotational symmetry number  1.
 Rotational temperatures (Kelvin)      0.36816     0.16885     0.13076
 Rotational constants (GHZ):           7.67129     3.51826     2.72466
    2 imaginary frequencies ignored.
 Zero-point vibrational energy     247436.9 (Joules/Mol)
                                   59.13884 (Kcal/Mol)
 Warning -- explicit consideration of   7 degrees of freedom as
           vibrations may cause significant error
 Vibrational temperatures:    227.75   249.78   326.15   494.75   554.70
          (Kelvin)            571.99   588.77  1228.74  1342.41  1448.41
                             1472.99  1536.72  1618.88  1664.55  1700.82
                             1837.97  1986.51  2067.87  2120.12  2134.58
                             2215.14  4316.64  4365.20  4391.95  4469.82
                             4483.32  4700.07  5402.97

 Zero-point correction=                           0.094244 (Hartree/Particle)
 Thermal correction to Energy=                    0.100444
 Thermal correction to Enthalpy=                  0.101389
 Thermal correction to Gibbs Free Energy=         0.065033
 Sum of electronic and zero-point Energies=           -268.853585
 Sum of electronic and thermal Energies=              -268.847384
 Sum of electronic and thermal Enthalpies=            -268.846440
 Sum of electronic and thermal Free Energies=         -268.882796

                     E (Thermal)             CV                S
                      KCal/Mol        Cal/Mol-Kelvin    Cal/Mol-Kelvin
 Total                   63.030             20.901             76.517
 Electronic               0.000              0.000              0.000
 Translational            0.889              2.981             38.862
 Rotational               0.889              2.981             25.883
 Vibrational             61.252             14.939             11.772
 Vibration     1          0.621              1.893              2.570
 Vibration     2          0.627              1.875              2.396
 Vibration     3          0.650              1.800              1.905
 Vibration     4          0.723              1.588              1.194
 Vibration     5          0.754              1.501              1.017
 Vibration     6          0.764              1.475              0.972
 Vibration     7          0.774              1.450              0.929

 Optimization completed.
    -- Stationary point found.
 Normal termination of Gaussian 09 at Tue Mar  6 17:10:16 2018.
