 Gaussian 09, Revision B.01,
 Gaussian 09:  EM64L-G09RevB.01 12-Aug-2010

 ----------------------------------------------------------------------
 # field=z+50 nosymm opt=(ts,noeigen,maxcycle=300,z-matrix,calcall) fre
 q rb3lyp/6-31++g(d,p)
 ----------------------------------------------------------------------

 ------------
 OH-BACK-TERM
 ------------
 Symbolic Z-matrix:
 Charge = -1 Multiplicity = 1

 SCF Done:  E(RB3LYP) =  -268.951234455     A.U. after   15 cycles
 SCF Done:  E(RB3LYP) =  -268.950843637     A.U. after   12 cycles
 SCF Done:  E(RB3LYP) =  -268.950850502     A.U. after   10 cycles
 SCF Done:  E(RB3LYP) =  -268.950850505     A.U. after    9 cycles
 Optimization completed.
    -- Stationary point found.
 ******    1 imaginary frequencies (negative Signs) ******
    1 imaginary frequencies ignored.
 Normal termination of Gaussian 09 at Tue Mar 13 16:44:36 2018.

 ----------------------------------------------------------------------
 #N Geom=AllCheck Guess=TCheck SCRF=Check GenChk RB3LYP/6-31++G(d,p) Fr
 eq
 ----------------------------------------------------------------------

 OH-BACK-TERM
 ------------
 Z-Matrix taken from the checkpoint file:
 OH-term-field-2.chk
 Charge = -1 Multiplicity = 1

                          Input orientation:
 ---------------------------------------------------------------------
 Center     Atomic      Atomic             Coordinates (Angstroms)
 Number     Number       Type             X           Y           Z
 ---------------------------------------------------------------------
      1          6           0        0.000000    0.000000    0.000000
      2          8           0        0.000000    0.000000    2.157076
      3          1           0        1.076781    0.000000    0.041210
      4          1           0        0.049490   -0.954787    2.313996
      5          1           0       -0.530905    0.932873    0.086216
      6          1           0       -1.771387   -1.185949   -0.396225
      7          1           0       -0.467198   -3.229120   -1.147615
      8          1           0       -0.316454   -2.947300    0.609051
      9          1           0        1.013116   -2.497760   -0.497170
     10          6           0       -0.076471   -2.542955   -0.385421
     11          6           0       -0.680049   -1.154599   -0.577259
     12          8           0       -0.296941   -0.476669   -1.731390
 ---------------------------------------------------------------------

 SCF Done:  E(RB3LYP) =  -268.950850505     A.U. after    1 cycles

 Alpha  occ. eigenvalues --  -18.93613 -18.89714 -10.06831 -10.06603 -10.03629
 Alpha  occ. eigenvalues --   -0.80978  -0.69747  -0.58151  -0.50979  -0.40861
 Alpha  occ. eigenvalues --   -0.32069  -0.28205  -0.26795  -0.23625  -0.20514
 Alpha  occ. eigenvalues --   -0.18720  -0.17654  -0.11935  -0.06566  -0.04674
 Alpha  occ. eigenvalues --   -0.03407
 Alpha virt. eigenvalues --    0.10064   0.12577   0.13044   0.13762   0.15449
 Alpha virt. eigenvalues --    0.16148   0.16935   0.18727   0.20916   0.21527
 Alpha virt. eigenvalues --    0.23633   0.24262   0.24624   0.25090   0.26222

 Mulliken atomic charges:
              1
     1  C   -0.190872
     2  O   -0.898003
     3  H    0.162837
     4  H    0.213848
     5  H    0.170053
     6  H    0.051508
     7  H    0.152945
     8  H    0.088022
     9  H    0.146025
    10  C   -0.499834
    11  C    0.136700
    12  O   -0.533227
 Sum of Mulliken atomic charges =  -1.00000

 Dipole moment (field-independent basis, Debye):
    X=              0.6116    Y=              0.2887    Z=             -3.4471  Tot=              3.5128
 Quadrupole moment (field-independent basis, Debye-Ang):
   XX=            -36.0638   YY=            -36.2216   ZZ=            -64.3154
   XY=             -0.2675   XZ=             -0.7996   YZ=             -4.2220

  Exact polarizability:  57.029   1.946  63.765   3.330   5.117  95.488
 Approx polarizability:  74.008   3.431  78.662   3.813   3.621 139.268

 ******    1 imaginary frequencies (negative Signs) ******

                     1                      2                      3
                     A                      A                      A
 Frequencies --  -463.0159                85.9133               151.5866
 Red. masses --    10.7521                 1.0661                 3.6024
 Frc consts  --     1.3581                 0.0046                 0.0488
 IR Inten    --   848.1018                56.1563                14.3884

                     4                      5                      6
                     A                      A                      A
 Frequencies --   199.3326               247.3688               302.8708
 Red. masses --     1.6253                 1.7487                 6.8596
 Frc consts  --     0.0380                 0.0630                 0.3707
 IR Inten    --    13.7744                 8.5317                 6.2482

                     7                      8                      9
                     A                      A                      A
 Frequencies --   381.9715               432.3464               575.4401
 Red. masses --     2.2057                 2.4563                 1.1569
 Frc consts  --     0.1896                 0.2705                 0.2257
 IR Inten    --    19.8846                10.8764                73.0197

                    10                     11                     12
                     A                      A                      A
 Frequencies --   808.4965               867.5715               932.1986
 Red. masses --     1.4291                 1.4978                 1.8112
 Frc consts  --     0.5504                 0.6642                 0.9273
 IR Inten    --     8.3727                13.3344                30.9803

                    13                     14                     15
                     A                      A                      A
 Frequencies --   968.9774              1022.3323              1108.5014
 Red. masses --     1.1026                 1.2563                 1.7704
 Frc consts  --     0.6100                 0.7736                 1.2818
 IR Inten    --     4.0478                11.4371                28.2546

                    16                     17                     18
                     A                      A                      A
 Frequencies --  1159.0573              1227.5924              1285.7091
 Red. masses --     2.0221                 1.7621                 1.4322
 Frc consts  --     1.6005                 1.5646                 1.3949
 IR Inten    --    17.4462                25.7362                 1.7985

                    19                     20                     21
                     A                      A                      A
 Frequencies --  1373.0871              1406.5865              1465.3737
 Red. masses --     1.2402                 1.4069                 1.2190
 Frc consts  --     1.3777                 1.6400                 1.5423
 IR Inten    --     2.8292                29.4127                15.1495

                    22                     23                     24
                     A                      A                      A
 Frequencies --  1488.1374              1492.4712              2910.8975
 Red. masses --     1.1879                 1.2025                 1.0823
 Frc consts  --     1.5499                 1.5781                 5.4031
 IR Inten    --     6.0743                13.1000               143.7351

                    25                     26                     27
                     A                      A                      A
 Frequencies --  2999.8847              3066.7730              3091.3250
 Red. masses --     1.0380                 1.0967                 1.1015
 Frc consts  --     5.5039                 6.0773                 6.2019
 IR Inten    --    62.9828                51.6104                53.6321

                    28                     29                     30
                     A                      A                      A
 Frequencies --  3233.5389              3355.6661              3783.7512
 Red. masses --     1.0516                 1.1260                 1.0672
 Frc consts  --     6.4785                 7.4706                 9.0018
 IR Inten    --     8.0814                 5.0859                25.2368

 - Thermochemistry -
 -------------------
 Temperature   298.150 Kelvin.  Pressure   1.00000 Atm.
 Atom     1 has atomic number  6 and mass  12.00000

 Molecular mass:    75.04460 amu.
 Principal axes and moments of inertia in atomic units:
                           1         2         3
     Eigenvalues --   251.13134 567.12705 756.02228
           X            0.09567  -0.03967   0.99462
           Y            0.38678   0.92217  -0.00043
           Z            0.91719  -0.38474  -0.10357
 This molecule is an asymmetric top.
 Rotational symmetry number  1.
 Rotational temperatures (Kelvin)      0.34489     0.15272     0.11457
 Rotational constants (GHZ):           7.18644     3.18225     2.38715
    1 imaginary frequencies ignored.
 Zero-point vibrational energy     247775.1 (Joules/Mol)
                                   59.21967 (Kcal/Mol)
 Warning -- explicit consideration of   8 degrees of freedom as
           vibrations may cause significant error
 Vibrational temperatures:    123.61   218.10   286.79   355.91   435.76
          (Kelvin)            549.57   622.05   827.93  1163.24  1248.24
                             1341.22  1394.14  1470.91  1594.88  1667.62
                             1766.23  1849.85  1975.56  2023.76  2108.34
                             2141.10  2147.33  4188.13  4316.16  4412.40
                             4447.72  4652.34  4828.05  5443.97

 Zero-point correction=                           0.094373 (Hartree/Particle)
 Thermal correction to Energy=                    0.101219
 Thermal correction to Enthalpy=                  0.102163
 Thermal correction to Gibbs Free Energy=         0.064136
 Sum of electronic and zero-point Energies=           -268.856478
 Sum of electronic and thermal Energies=              -268.849632
 Sum of electronic and thermal Enthalpies=            -268.848687
 Sum of electronic and thermal Free Energies=         -268.886715

                     E (Thermal)             CV                S
                      KCal/Mol        Cal/Mol-Kelvin    Cal/Mol-Kelvin
 Total                   63.516             22.805             80.035
 Electronic               0.000              0.000              0.000
 Translational            0.889              2.981             38.862
 Rotational               0.889              2.981             26.179
 Vibrational             61.738             16.843             14.993
 Vibration     1          0.601              1.959              3.751
 Vibration     2          0.619              1.901              2.652
 Vibration     3          0.637              1.841              2.139
 Vibration     4          0.661              1.767              1.749
 Vibration     5          0.694              1.668              1.401
 Vibration     6          0.751              1.509              1.031
 Vibration     7          0.793              1.400              0.851
 Vibration     8          0.932              1.084              0.494

 Optimization completed.
    -- Stationary point found.
 Normal termination of Gaussian 09 at Tue Mar 13 16:44:56 2018.
