 Gaussian 09, Revision B.01,
 Gaussian 09:  EM64L-G09RevB.01 12-Aug-2010

 ----------------------------------------------------------------------
 # field=z+25 nosymm opt=(ts,calcall,z-matrix,noeigen,maxcycle=300) fre
 q rb3lyp/6-31++g(d,p)
 ----------------------------------------------------------------------

 -----------
 OH-BACK-MID
 -----------
 Symbolic Z-matrix:
 Charge =  0 Multiplicity = 1

 SCF Done:  E(RB3LYP) =  -269.512076302     A.U. after   15 cycles
 SCF Done:  E(RB3LYP) =  -269.522198957     A.U. after   11 cycles
 SCF Done:  E(RB3LYP) =  -269.514329312     A.U. after   12 cycles
 SCF Done:  E(RB3LYP) =  -269.506664601     A.U. after   12 cycles
 SCF Done:  E(RB3LYP) =  -269.500372547     A.U. after   12 cycles
 SCF Done:  E(RB3LYP) =  -269.494985982     A.U. after   13 cycles
 SCF Done:  E(RB3LYP) =  -269.491000912     A.U. after   13 cycles
 SCF Done:  E(RB3LYP) =  -269.488341568     A.U. after   13 cycles
 SCF Done:  E(RB3LYP) =  -269.490091129     A.U. after   13 cycles
 SCF Done:  E(RB3LYP) =  -269.494247623     A.U. after   13 cycles
 SCF Done:  E(RB3LYP) =  -269.497663029     A.U. after   13 cycles
 SCF Done:  E(RB3LYP) =  -269.499735983     A.U. after   13 cycles
 SCF Done:  E(RB3LYP) =  -269.500709300     A.U. after   12 cycles
 SCF Done:  E(RB3LYP) =  -269.500811686     A.U. after   12 cycles
 SCF Done:  E(RB3LYP) =  -269.501088037     A.U. after   11 cycles
 SCF Done:  E(RB3LYP) =  -269.501092720     A.U. after   12 cycles
 SCF Done:  E(RB3LYP) =  -269.501146810     A.U. after   10 cycles
 Optimization completed.
    -- Stationary point found.
 ******    1 imaginary frequencies (negative Signs) ******
    1 imaginary frequencies ignored.
 Normal termination of Gaussian 09 at Tue Mar 13 17:40:55 2018.

 ----------------------------------------------------------------------
 #N Geom=AllCheck Guess=TCheck SCRF=Check GenChk RB3LYP/6-31++G(d,p) Fr
 eq
 ----------------------------------------------------------------------

 OH-BACK-MID
 -----------
 Z-Matrix taken from the checkpoint file:
 H2O-mid-field.chk
 Charge =  0 Multiplicity = 1

                          Input orientation:
 ---------------------------------------------------------------------
 Center     Atomic      Atomic             Coordinates (Angstroms)
 Number     Number       Type             X           Y           Z
 ---------------------------------------------------------------------
      1          6           0        0.000000    0.000000    0.000000
      2          8           0        0.000000    0.000000    2.273779
      3          1           0        2.144431    0.000000   -0.034769
      4          1           0        1.086621   -1.044622   -0.996995
      5          1           0       -0.874301   -0.635659    0.113103
      6          1           0       -1.009392    1.460370   -1.222670
      7          1           0        0.753220    1.742239   -0.983934
      8          1           0        0.609973   -0.811669    2.009377
      9          1           0       -0.385997    2.009685    0.339414
     10          1           0       -0.815149   -0.373251    2.632978
     11          6           0        1.282044   -0.687632    0.102257
     12          6           0       -0.169490    1.369647   -0.528270
     13          8           0        1.395677   -1.637140    1.014746
 ---------------------------------------------------------------------

 SCF Done:  E(RB3LYP) =  -269.501146810     A.U. after    1 cycles

 Alpha  occ. eigenvalues --  -19.16414 -19.08778 -10.29581 -10.25609 -10.23058
 Alpha  occ. eigenvalues --   -1.01358  -0.96558  -0.83200  -0.71109  -0.60518
 Alpha  occ. eigenvalues --   -0.53807  -0.48898  -0.46995  -0.46305  -0.42701
 Alpha  occ. eigenvalues --   -0.41008  -0.40154  -0.37379  -0.32280  -0.23816
 Alpha  occ. eigenvalues --   -0.23283
 Alpha virt. eigenvalues --   -0.10123  -0.02412  -0.00623   0.00731   0.01427
 Alpha virt. eigenvalues --    0.03970   0.04210   0.04624   0.05531   0.06979
 Alpha virt. eigenvalues --    0.08487   0.10381   0.10822   0.10976   0.11978

 Mulliken atomic charges:
              1
     1  C    0.466922
     2  O   -0.738470
     3  H    0.160633
     4  H    0.122350
     5  H    0.234883
     6  H    0.180399
     7  H    0.203719
     8  H    0.429740
     9  H    0.203738
    10  H    0.356467
    11  C   -0.301667
    12  C   -0.712846
    13  O   -0.605868
 Sum of Mulliken atomic charges =   0.00000

 Dipole moment (field-independent basis, Debye):
    X=             -3.4278    Y=              3.1137    Z=             -3.4079  Tot=              5.7496
 Quadrupole moment (field-independent basis, Debye-Ang):
   XX=            -33.8940   YY=            -38.0957   ZZ=            -35.3795
   XY=              6.0223   XZ=             -6.5372   YZ=              0.6114

  Exact polarizability:  55.450 -10.710  57.980  -2.703  -5.681  62.969
 Approx polarizability:  83.065 -20.721  84.814  -2.820  -6.099  90.419

 ******    1 imaginary frequencies (negative Signs) ******

                     1                      2                      3
                     A                      A                      A
 Frequencies --  -566.0461               142.6660               203.0317
 Red. masses --     2.0542                 1.1232                 3.7108
 Frc consts  --     0.3878                 0.0135                 0.0901
 IR Inten    --    39.9246                 1.7949                42.9638

                     4                      5                      6
                     A                      A                      A
 Frequencies --   249.8195               303.2672               345.5597
 Red. masses --     1.9937                 2.8791                 2.0267
 Frc consts  --     0.0733                 0.1560                 0.1426
 IR Inten    --    11.4685                60.2472                33.1704

                     7                      8                      9
                     A                      A                      A
 Frequencies --   436.2721               512.6609               542.8936
 Red. masses --     2.6120                 1.2727                 3.6279
 Frc consts  --     0.2929                 0.1971                 0.6300
 IR Inten    --    25.2205                48.0167                40.0110

                    10                     11                     12
                     A                      A                      A
 Frequencies --   586.7077               831.1918               945.3944
 Red. masses --     1.1266                 1.2506                 1.3902
 Frc consts  --     0.2285                 0.5091                 0.7320
 IR Inten    --    83.1139                19.1479                 2.8391

                    13                     14                     15
                     A                      A                      A
 Frequencies --  1021.3107              1047.8526              1134.3059
 Red. masses --     1.3681                 1.3511                 2.1889
 Frc consts  --     0.8408                 0.8741                 1.6593
 IR Inten    --    19.6516                 0.7465                 8.1414

                    16                     17                     18
                     A                      A                      A
 Frequencies --  1173.3694              1208.3480              1265.7704
 Red. masses --     1.2732                 1.7836                 1.5813
 Frc consts  --     1.0328                 1.5344                 1.4927
 IR Inten    --   303.0941                62.3992                76.0105

                    19                     20                     21
                     A                      A                      A
 Frequencies --  1276.8706              1347.9982              1384.0194
 Red. masses --     1.6750                 1.2694                 1.2424
 Frc consts  --     1.6090                 1.3591                 1.4022
 IR Inten    --    65.2937                14.0873                43.0203

                    22                     23                     24
                     A                      A                      A
 Frequencies --  1448.2518              1468.5534              1501.4143
 Red. masses --     1.3923                 1.0924                 1.3210
 Frc consts  --     1.7206                 1.3881                 1.7545
 IR Inten    --    32.3004                10.9718                 1.3391

                    25                     26                     27
                     A                      A                      A
 Frequencies --  1647.7575              2311.9145              2412.9668
 Red. masses --     1.0665                 1.0984                 1.0667
 Frc consts  --     1.7060                 3.4589                 3.6594
 IR Inten    --    75.7606               474.0331                65.6162

                    28                     29                     30
                     A                      A                      A
 Frequencies --  2893.6355              3030.1152              3095.4016
 Red. masses --     1.0773                 1.0404                 1.0904
 Frc consts  --     5.3148                 5.6282                 6.1556
 IR Inten    --    69.7248                 0.3309                 7.5019

                    31                     32                     33
                     A                      A                      A
 Frequencies --  3136.3028              3207.0166              3855.9269
 Red. masses --     1.1057                 1.0907                 1.0657
 Frc consts  --     6.4079                 6.6094                 9.3357
 IR Inten    --     3.4952                 9.5556                58.1487

 - Thermochemistry -
 -------------------
 Temperature   298.150 Kelvin.  Pressure   1.00000 Atm.
 Atom     1 has atomic number  6 and mass  12.00000

 Molecular mass:    76.05243 amu.
 Principal axes and moments of inertia in atomic units:
                           1         2         3
     Eigenvalues --   292.01585 479.39308 707.92823
           X           -0.38666  -0.50191   0.77368
           Y            0.73746   0.33547   0.58618
           Z           -0.55376   0.79721   0.24042
 This molecule is an asymmetric top.
 Rotational symmetry number  1.
 Rotational temperatures (Kelvin)      0.29661     0.18067     0.12235
 Rotational constants (GHZ):           6.18029     3.76464     2.54933
    1 imaginary frequencies ignored.
 Zero-point vibrational energy     274953.1 (Joules/Mol)
                                   65.71536 (Kcal/Mol)
 Warning -- explicit consideration of   9 degrees of freedom as
           vibrations may cause significant error
 Vibrational temperatures:    205.26   292.12   359.43   436.33   497.18
          (Kelvin)            627.70   737.60   781.10   844.14  1195.90
                             1360.21  1469.44  1507.62  1632.01  1688.21
                             1738.54  1821.16  1837.13  1939.47  1991.29
                             2083.71  2112.92  2160.20  2370.75  3326.33
                             3471.72  4163.29  4359.65  4453.59  4512.43
                             4614.18  5547.81

 Zero-point correction=                           0.104724 (Hartree/Particle)
 Thermal correction to Energy=                    0.111188
 Thermal correction to Enthalpy=                  0.112133
 Thermal correction to Gibbs Free Energy=         0.075338
 Sum of electronic and zero-point Energies=           -269.396423
 Sum of electronic and thermal Energies=              -269.389958
 Sum of electronic and thermal Enthalpies=            -269.389014
 Sum of electronic and thermal Free Energies=         -269.425808

                     E (Thermal)             CV                S
                      KCal/Mol        Cal/Mol-Kelvin    Cal/Mol-Kelvin
 Total                   69.772             22.811             77.440
 Electronic               0.000              0.000              0.000
 Translational            0.889              2.981             38.902
 Rotational               0.889              2.981             26.097
 Vibrational             67.994             16.850             12.441
 Vibration     1          0.616              1.911              2.768
 Vibration     2          0.639              1.836              2.105
 Vibration     3          0.663              1.763              1.732
 Vibration     4          0.695              1.668              1.399
 Vibration     5          0.724              1.584              1.186
 Vibration     6          0.797              1.391              0.838
 Vibration     7          0.868              1.222              0.627
 Vibration     8          0.898              1.155              0.559
 Vibration     9          0.944              1.060              0.473

 Optimization completed.
    -- Stationary point found.
 Normal termination of Gaussian 09 at Tue Mar 13 17:41:20 2018.
