 Gaussian 09, Revision B.01,
 Gaussian 09:  EM64L-G09RevB.01 12-Aug-2010

 ----------------------------------------------------------------------
 # field=z+25 freq opt=(z-matrix,ts,calcfc,noeigen) nosymm rb3lyp/6-31+
 +g(d,p)
 ----------------------------------------------------------------------

 ------------
 OH-BACK-TERM
 ------------
 Symbolic Z-matrix:
 Charge =  0 Multiplicity = 1

 SCF Done:  E(RB3LYP) =  -269.487332225     A.U. after   15 cycles
 SCF Done:  E(RB3LYP) =  -269.490530708     A.U. after   14 cycles
 SCF Done:  E(RB3LYP) =  -269.486298490     A.U. after   14 cycles
 SCF Done:  E(RB3LYP) =  -269.488386596     A.U. after   14 cycles
 SCF Done:  E(RB3LYP) =  -269.489452603     A.U. after   12 cycles
 SCF Done:  E(RB3LYP) =  -269.490156671     A.U. after   12 cycles
 SCF Done:  E(RB3LYP) =  -269.489256928     A.U. after   13 cycles
 SCF Done:  E(RB3LYP) =  -269.489461602     A.U. after   13 cycles
 SCF Done:  E(RB3LYP) =  -269.489804528     A.U. after   13 cycles
 SCF Done:  E(RB3LYP) =  -269.490096872     A.U. after   12 cycles
 SCF Done:  E(RB3LYP) =  -269.490050687     A.U. after   11 cycles
 SCF Done:  E(RB3LYP) =  -269.490054468     A.U. after   11 cycles
 SCF Done:  E(RB3LYP) =  -269.490055543     A.U. after   10 cycles
 SCF Done:  E(RB3LYP) =  -269.490055801     A.U. after    9 cycles
 SCF Done:  E(RB3LYP) =  -269.490055970     A.U. after    8 cycles
 SCF Done:  E(RB3LYP) =  -269.489883377     A.U. after   12 cycles
 SCF Done:  E(RB3LYP) =  -269.490054204     A.U. after   12 cycles
 SCF Done:  E(RB3LYP) =  -269.490056022     A.U. after   11 cycles
 SCF Done:  E(RB3LYP) =  -269.490056107     A.U. after    9 cycles
 Optimization completed.
    -- Stationary point found.
 Normal termination of Gaussian 09 at Mon Mar  5 15:18:30 2018.

 ----------------------------------------------------------------------
 #N Geom=AllCheck Guess=TCheck SCRF=Check GenChk RB3LYP/6-31++G(d,p) Fr
 eq
 ----------------------------------------------------------------------

 OH-BACK-TERM
 ------------
 Z-Matrix taken from the checkpoint file:
 ts
 Charge =  0 Multiplicity = 1

                          Input orientation:
 ---------------------------------------------------------------------
 Center     Atomic      Atomic             Coordinates (Angstroms)
 Number     Number       Type             X           Y           Z
 ---------------------------------------------------------------------
      1          6           0        0.000000    0.000000    0.000000
      2          8           0        0.000000    0.000000    2.203291
      3          1           0        0.919354    0.000000    2.505493
      4          1           0       -0.200212   -0.968339    1.848759
      5          1           0        1.069736   -0.077477   -0.159134
      6          1           0       -0.400895    0.974897    0.251269
      7          1           0       -2.666568   -0.491789    0.587085
      8          1           0       -2.631313   -0.333314   -1.190717
      9          1           0       -2.836714   -1.929810   -0.437497
     10          1           0       -0.499968   -1.619808   -1.287661
     11          6           0       -2.333598   -0.963369   -0.343485
     12          6           0       -0.823348   -1.179764   -0.328148
     13          8           0       -0.339586   -1.922309    0.761285
 ---------------------------------------------------------------------

 SCF Done:  E(RB3LYP) =  -269.490056107     A.U. after    1 cycles

 Alpha  occ. eigenvalues --  -19.17090 -19.11927 -10.29361 -10.25162 -10.18481
 Alpha  occ. eigenvalues --   -1.02233  -0.97079  -0.76870  -0.71275  -0.59451
 Alpha  occ. eigenvalues --   -0.53687  -0.49862  -0.47459  -0.44028  -0.41277
 Alpha  occ. eigenvalues --   -0.38985  -0.37795  -0.36104  -0.34055  -0.25139
 Alpha  occ. eigenvalues --   -0.24876
 Alpha virt. eigenvalues --   -0.11368  -0.02152   0.00445   0.01366   0.02207
 Alpha virt. eigenvalues --    0.03773   0.04579   0.04911   0.05910   0.07068
 Alpha virt. eigenvalues --    0.09170   0.09608   0.10867   0.12271   0.12543

 Mulliken atomic charges:
              1
     1  C   -0.200447
     2  O   -0.690161
     3  H    0.353401
     4  H    0.445947
     5  H    0.203980
     6  H    0.205806
     7  H    0.164927
     8  H    0.145831
     9  H    0.171579
    10  H    0.142080
    11  C   -0.551782
    12  C    0.185089
    13  O   -0.576250
 Sum of Mulliken atomic charges =   0.00000

 Dipole moment (field-independent basis, Debye):
    X=              1.1565    Y=              2.4415    Z=             -2.4593  Tot=              3.6533
 Quadrupole moment (field-independent basis, Debye-Ang):
   XX=            -29.3161   YY=            -39.5521   ZZ=            -34.6534
   XY=              0.5856   XZ=              4.5244   YZ=              2.1665

  Exact polarizability:  51.870   5.658  56.096   6.288   3.248  60.971
 Approx polarizability:  64.327  10.129 100.376   3.473  -3.205  87.488

 ******    1 imaginary frequencies (negative Signs) ******

                     1                      2                      3
                     A                      A                      A
 Frequencies --  -578.6413                81.1199               240.2356
 Red. masses --     3.3825                 3.8548                 1.0436
 Frc consts  --     0.6673                 0.0149                 0.0355
 IR Inten    --    45.7811                 0.8191                 0.7822

                     4                      5                      6
                     A                      A                      A
 Frequencies --   345.5484               416.8575               426.1584
 Red. masses --     2.1375                 4.2061                 3.0157
 Frc consts  --     0.1504                 0.4306                 0.3227
 IR Inten    --     7.6448               108.2858                11.7772

                     7                      8                      9
                     A                      A                      A
 Frequencies --   472.6666               517.5958               549.9857
 Red. masses --     2.8388                 1.2082                 1.2046
 Frc consts  --     0.3737                 0.1907                 0.2147
 IR Inten    --    75.1614                67.6321                78.6646

                    10                     11                     12
                     A                      A                      A
 Frequencies --   760.2296               843.8647               913.0262
 Red. masses --     1.1241                 2.3046                 1.9970
 Frc consts  --     0.3828                 0.9669                 0.9809
 IR Inten    --     2.5394                 8.4853                40.5165

                    13                     14                     15
                     A                      A                      A
 Frequencies --   914.5714              1045.5384              1076.7489
 Red. masses --     1.2251                 1.2905                 1.2257
 Frc consts  --     0.6038                 0.8312                 0.8373
 IR Inten    --    16.1289                 1.8067               348.1462

                    16                     17                     18
                     A                      A                      A
 Frequencies --  1138.5412              1164.5905              1179.8729
 Red. masses --     2.1684                 1.7509                 1.9887
 Frc consts  --     1.6561                 1.3991                 1.6311
 IR Inten    --     8.8830                25.3301                11.8297

                    19                     20                     21
                     A                      A                      A
 Frequencies --  1276.8503              1375.0241              1410.0886
 Red. masses --     1.2100                 1.4164                 1.3423
 Frc consts  --     1.1623                 1.5778                 1.5725
 IR Inten    --     5.3717                 6.2862                16.4003

                    22                     23                     24
                     A                      A                      A
 Frequencies --  1478.6024              1494.6907              1500.4365
 Red. masses --     1.1053                 1.1227                 1.0971
 Frc consts  --     1.4237                 1.4778                 1.4552
 IR Inten    --     7.7386                 6.0207                 5.3167

                    25                     26                     27
                     A                      A                      A
 Frequencies --  1619.2126              2226.4186              2957.3369
 Red. masses --     1.0585                 1.1024                 1.0803
 Frc consts  --     1.6351                 3.2196                 5.5668
 IR Inten    --    65.5211               415.7663                39.5013

                    28                     29                     30
                     A                      A                      A
 Frequencies --  3035.1045              3107.9315              3129.5205
 Red. masses --     1.0370                 1.1010                 1.1020
 Frc consts  --     5.6285                 6.2657                 6.3588
 IR Inten    --    19.4116                23.2086                15.5261

                    31                     32                     33
                     A                      A                      A
 Frequencies --  3177.8204              3293.7441              3831.9695
 Red. masses --     1.0531                 1.1212                 1.0658
 Frc consts  --     6.2656                 7.1667                 9.2211
 IR Inten    --     2.2532                 1.0294                56.4808

 - Thermochemistry -
 -------------------
 Temperature   298.150 Kelvin.  Pressure   1.00000 Atm.
 Atom     1 has atomic number  6 and mass  12.00000

 Molecular mass:    76.05243 amu.
 Principal axes and moments of inertia in atomic units:
                           1         2         3
     Eigenvalues --   247.53853 555.70526 579.52269
           X            0.61115  -0.21340   0.76220
           Y            0.31888   0.94775   0.00966
           Z            0.72444  -0.23715  -0.64727
 This molecule is an asymmetric top.
 Rotational symmetry number  1.
 Rotational temperatures (Kelvin)      0.34990     0.15586     0.14946
 Rotational constants (GHZ):           7.29075     3.24766     3.11419
    1 imaginary frequencies ignored.
 Zero-point vibrational energy     281133.8 (Joules/Mol)
                                   67.19259 (Kcal/Mol)
 Warning -- explicit consideration of   8 degrees of freedom as
           vibrations may cause significant error
 Vibrational temperatures:    116.71   345.64   497.17   599.76   613.15
          (Kelvin)            680.06   744.70   791.31  1093.80  1214.13
                             1313.64  1315.86  1504.29  1549.20  1638.10
                             1675.58  1697.57  1837.10  1978.35  2028.80
                             2127.38  2150.52  2158.79  2329.68  3203.32
                             4254.94  4366.83  4471.61  4502.68  4572.17
                             4738.96  5513.34

 Zero-point correction=                           0.107078 (Hartree/Particle)
 Thermal correction to Energy=                    0.113196
 Thermal correction to Enthalpy=                  0.114140
 Thermal correction to Gibbs Free Energy=         0.077849
 Sum of electronic and zero-point Energies=           -269.382978
 Sum of electronic and thermal Energies=              -269.376860
 Sum of electronic and thermal Enthalpies=            -269.375916
 Sum of electronic and thermal Free Energies=         -269.412208

                     E (Thermal)             CV                S
                      KCal/Mol        Cal/Mol-Kelvin    Cal/Mol-Kelvin
 Total                   71.032             22.048             76.383
 Electronic               0.000              0.000              0.000
 Translational            0.889              2.981             38.902
 Rotational               0.889              2.981             25.881
 Vibrational             69.254             16.087             11.600
 Vibration     1          0.600              1.962              3.864
 Vibration     2          0.657              1.779              1.801
 Vibration     3          0.724              1.584              1.186
 Vibration     4          0.780              1.434              0.903
 Vibration     5          0.788              1.413              0.871
 Vibration     6          0.830              1.311              0.730
 Vibration     7          0.873              1.211              0.616
 Vibration     8          0.905              1.140              0.544

 Optimization completed.
    -- Stationary point found.
 Normal termination of Gaussian 09 at Mon Mar  5 15:18:54 2018.
