 Gaussian 09, Revision B.01,
 Gaussian 09:  EM64L-G09RevB.01 12-Aug-2010

 ----------------------------------------------------------------------
 # opt=(calcall,ts,z-matrix,noeigen,maxcycle=300) b3lyp/6-31++g(d,p) no
 symm field=z+25 freq
 ----------------------------------------------------------------------

 -------------------
 Title Card Required
 -------------------
 Symbolic Z-matrix:
 Charge =  1 Multiplicity = 1

 SCF Done:  E(RB3LYP) =  -269.885801981     A.U. after   12 cycles
 SCF Done:  E(RB3LYP) =  -269.886223422     A.U. after   11 cycles
 SCF Done:  E(RB3LYP) =  -269.886381261     A.U. after   11 cycles
 SCF Done:  E(RB3LYP) =  -269.886319379     A.U. after   11 cycles
 SCF Done:  E(RB3LYP) =  -269.886370804     A.U. after   10 cycles
 SCF Done:  E(RB3LYP) =  -269.886478970     A.U. after   11 cycles
 SCF Done:  E(RB3LYP) =  -269.886687269     A.U. after   10 cycles
 SCF Done:  E(RB3LYP) =  -269.886916890     A.U. after   10 cycles
 SCF Done:  E(RB3LYP) =  -269.887149407     A.U. after   10 cycles
 SCF Done:  E(RB3LYP) =  -269.887377228     A.U. after   10 cycles
 SCF Done:  E(RB3LYP) =  -269.888413963     A.U. after   10 cycles
 SCF Done:  E(RB3LYP) =  -269.888488759     A.U. after   10 cycles
 SCF Done:  E(RB3LYP) =  -269.888497276     A.U. after    9 cycles
 SCF Done:  E(RB3LYP) =  -269.888566612     A.U. after    9 cycles
 SCF Done:  E(RB3LYP) =  -269.888519488     A.U. after   10 cycles
 SCF Done:  E(RB3LYP) =  -269.888608242     A.U. after    9 cycles
 SCF Done:  E(RB3LYP) =  -269.888604244     A.U. after    9 cycles
 SCF Done:  E(RB3LYP) =  -269.888613962     A.U. after    8 cycles
 SCF Done:  E(RB3LYP) =  -269.888614053     A.U. after    8 cycles
 Optimization completed.
    -- Stationary point found.
 ******    1 imaginary frequencies (negative Signs) ******
    1 imaginary frequencies ignored.
 Normal termination of Gaussian 09 at Tue Mar  6 16:39:30 2018.

 ----------------------------------------------------------------------
 #N Geom=AllCheck Guess=TCheck SCRF=Check GenChk RB3LYP/6-31++G(d,p) Fr
 eq
 ----------------------------------------------------------------------

 -------------------
 No Z-matrix found on checkpoint file.
 Cartesian coordinates read from the checkpoint file:
 H3O-mid-field-2.chk
 Charge =  1 Multiplicity = 1

                          Input orientation:
 ---------------------------------------------------------------------
 Center     Atomic      Atomic             Coordinates (Angstroms)
 Number     Number       Type             X           Y           Z
 ---------------------------------------------------------------------
      1          6           0       -0.027694    0.061427    0.046341
      2          8           0        0.212047   -0.153008    2.341457
      3          1           0        2.159025    0.030930    0.173659
      4          1           0        1.407208   -1.565469   -0.232185
      5          1           0        0.375563    0.580498    2.951636
      6          1           0       -0.238104   -0.841223    2.852354
      7          1           0       -0.085393    1.136587    0.199550
      8          1           0        1.462367    0.753624   -1.864221
      9          1           0       -1.693184   -0.419381   -1.126565
     10          1           0       -1.148470   -1.767005   -0.098406
     11          1           0       -2.024869   -0.345298    0.587818
     12          6           0        1.305401   -0.482026   -0.266097
     13          6           0       -1.282471   -0.684739   -0.141067
     14          8           0        0.999065   -0.068859   -1.625463
 ---------------------------------------------------------------------

 SCF Done:  E(RB3LYP) =  -269.888614053     A.U. after    1 cycles

 Alpha  occ. eigenvalues --  -19.40105 -19.37120 -10.49789 -10.45166 -10.38172
 Alpha  occ. eigenvalues --   -1.26136  -1.22043  -1.00669  -0.90639  -0.80158
 Alpha  occ. eigenvalues --   -0.74347  -0.73944  -0.67819  -0.66337  -0.62516
 Alpha  occ. eigenvalues --   -0.60418  -0.58753  -0.57626  -0.55828  -0.52165
 Alpha  occ. eigenvalues --   -0.51257
 Alpha virt. eigenvalues --   -0.27554  -0.17739  -0.15563  -0.12706  -0.12092
 Alpha virt. eigenvalues --   -0.11422  -0.09793  -0.09211  -0.07932  -0.07356
 Alpha virt. eigenvalues --   -0.05938  -0.04821  -0.04055  -0.02745  -0.02288

 Mulliken atomic charges:
              1
     1  C    0.122383
     2  O   -0.684584
     3  H    0.202969
     4  H    0.227080
     5  H    0.408646
     6  H    0.393044
     7  H    0.243850
     8  H    0.427719
     9  H    0.248614
    10  H    0.216272
    11  H    0.214583
    12  C   -0.078088
    13  C   -0.562759
    14  O   -0.379731
 Sum of Mulliken atomic charges =   1.00000

 Dipole moment (field-independent basis, Debye):
    X=              1.1514    Y=              0.4256    Z=              2.3847  Tot=              2.6821
 Quadrupole moment (field-independent basis, Debye-Ang):
   XX=            -21.2752   YY=            -24.0969   ZZ=            -14.8376
   XY=              3.4619   XZ=             -3.0951   YZ=             -2.4105

  Exact polarizability:  49.019   2.111  39.801  -4.270  -0.619  54.262
 Approx polarizability:  62.711   2.477  54.995  -7.790  -0.788  75.757

 ******    1 imaginary frequencies (negative Signs) ******

                     1                      2                      3
                     A                      A                      A
 Frequencies --  -205.6244                93.2560               129.3206
 Red. masses --     3.1015                 1.1820                 2.3862
 Frc consts  --     0.0773                 0.0061                 0.0235
 IR Inten    --   146.5605                21.9300                10.1368

                     4                      5                      6
                     A                      A                      A
 Frequencies --   147.7553               157.5143               214.3002
 Red. masses --     2.2461                 1.4785                 3.2676
 Frc consts  --     0.0289                 0.0216                 0.0884
 IR Inten    --     8.4389                23.3189                17.8441

                     7                      8                      9
                     A                      A                      A
 Frequencies --   244.8715               297.2933               395.0175
 Red. masses --     1.7973                 1.6957                 1.5487
 Frc consts  --     0.0635                 0.0883                 0.1424
 IR Inten    --   154.0228                81.3506                24.3659

                    10                     11                     12
                     A                      A                      A
 Frequencies --   421.9133               559.1779               854.1606
 Red. masses --     1.3501                 1.1505                 2.0251
 Frc consts  --     0.1416                 0.2119                 0.8705
 IR Inten    --    32.5951               102.3142                13.2978

                    13                     14                     15
                     A                      A                      A
 Frequencies --   889.9261               956.7486               980.9511
 Red. masses --     1.2615                 1.4353                 2.7579
 Frc consts  --     0.5886                 0.7741                 1.5636
 IR Inten    --    23.1441                13.8320                35.7403

                    16                     17                     18
                     A                      A                      A
 Frequencies --  1040.2816              1083.8787              1215.8231
 Red. masses --     1.1536                 1.3104                 1.7202
 Frc consts  --     0.7356                 0.9070                 1.4982
 IR Inten    --    80.1481                14.5482                 7.0317

                    19                     20                     21
                     A                      A                      A
 Frequencies --  1229.8863              1294.2077              1323.2651
 Red. masses --     1.8688                 1.1949                 1.2780
 Frc consts  --     1.6655                 1.1792                 1.3185
 IR Inten    --     5.8563                26.9833                 5.2922

                    22                     23                     24
                     A                      A                      A
 Frequencies --  1375.3407              1410.3077              1457.2207
 Red. masses --     1.1822                 1.3731                 1.0686
 Frc consts  --     1.3176                 1.6091                 1.3369
 IR Inten    --    58.1807                24.3046                 5.5294

                    25                     26                     27
                     A                      A                      A
 Frequencies --  1506.7916              1526.0807              1628.0400
 Red. masses --     1.2517                 1.2215                 1.0911
 Frc consts  --     1.6744                 1.6760                 1.7039
 IR Inten    --    17.9698                 8.0513                60.7719

                    28                     29                     30
                     A                      A                      A
 Frequencies --  3035.7779              3104.9807              3132.0427
 Red. masses --     1.0454                 1.0861                 1.0574
 Frc consts  --     5.6763                 6.1695                 6.1114
 IR Inten    --    30.3659                 2.9570                 1.0743

                    31                     32                     33
                     A                      A                      A
 Frequencies --  3165.5396              3207.4048              3222.1885
 Red. masses --     1.1065                 1.1093                 1.1015
 Frc consts  --     6.5326                 6.7238                 6.7381
 IR Inten    --     2.3960                 0.6710                 2.3061

                    34                     35                     36
                     A                      A                      A
 Frequencies --  3750.3592              3780.5880              3892.4950
 Red. masses --     1.0680                 1.0440                 1.0842
 Frc consts  --     8.8503                 8.7915                 9.6786
 IR Inten    --   219.5566                70.0552               129.5551

 - Thermochemistry -
 -------------------
 Temperature   298.150 Kelvin.  Pressure   1.00000 Atm.
 Atom     1 has atomic number  6 and mass  12.00000

 Molecular mass:    77.06025 amu.
 Principal axes and moments of inertia in atomic units:
                           1         2         3
     Eigenvalues --   270.26018 606.56408 795.31837
           X           -0.26312   0.95041  -0.16580
           Y           -0.01371   0.16816   0.98566
           Z            0.96466   0.26162  -0.03122
 This molecule is an asymmetric top.
 Rotational symmetry number  1.
 Rotational temperatures (Kelvin)      0.32048     0.14279     0.10890
 Rotational constants (GHZ):           6.67779     2.97535     2.26921
    1 imaginary frequencies ignored.
 Zero-point vibrational energy     315363.8 (Joules/Mol)
                                   75.37375 (Kcal/Mol)
 Warning -- explicit consideration of  10 degrees of freedom as
           vibrations may cause significant error
 Vibrational temperatures:    134.17   186.06   212.59   226.63   308.33
          (Kelvin)            352.32   427.74   568.34   607.04   804.53
                             1228.95  1280.40  1376.55  1411.37  1496.73
                             1559.46  1749.30  1769.53  1862.07  1903.88
                             1978.81  2029.12  2096.61  2167.93  2195.69
                             2342.38  4367.80  4467.37  4506.31  4554.50
                             4614.73  4636.00  5395.92  5439.42  5600.43

 Zero-point correction=                           0.120116 (Hartree/Particle)
 Thermal correction to Energy=                    0.128243
 Thermal correction to Enthalpy=                  0.129187
 Thermal correction to Gibbs Free Energy=         0.088509
 Sum of electronic and zero-point Energies=           -269.768498
 Sum of electronic and thermal Energies=              -269.760371
 Sum of electronic and thermal Enthalpies=            -269.759427
 Sum of electronic and thermal Free Energies=         -269.800105

                     E (Thermal)             CV                S
                      KCal/Mol        Cal/Mol-Kelvin    Cal/Mol-Kelvin
 Total                   80.474             26.628             85.615
 Electronic               0.000              0.000              0.000
 Translational            0.889              2.981             38.941
 Rotational               0.889              2.981             26.369
 Vibrational             78.696             20.667             20.305
 Vibration     1          0.602              1.954              3.591
 Vibration     2          0.612              1.924              2.956
 Vibration     3          0.617              1.905              2.701
 Vibration     4          0.621              1.894              2.579
 Vibration     5          0.644              1.819              2.007
 Vibration     6          0.660              1.771              1.767
 Vibration     7          0.691              1.679              1.432
 Vibration     8          0.762              1.481              0.981
 Vibration     9          0.784              1.423              0.885
 Vibration    10          0.915              1.120              0.525

 Optimization completed.
    -- Stationary point found.
 Normal termination of Gaussian 09 at Tue Mar  6 16:39:59 2018.
