 Gaussian 09, Revision B.01,
 Gaussian 09:  EM64L-G09RevB.01 12-Aug-2010

 ----------------------------------------------------------------------
 # opt=(notrust,calcfc,ts,maxstep=2,noeigen,z-matrix,maxcycle=300) b3ly
 p/6-31++g(d,p) field=z+25 freq
 ----------------------------------------------------------------------

 -------------------------------
 change step tp 2 and use calcfc
 -------------------------------
 Symbolic Z-matrix:
 Charge =  1 Multiplicity = 1

 SCF Done:  E(RB3LYP) =  -269.888899979     A.U. after   12 cycles
 SCF Done:  E(RB3LYP) =  -269.888909572     A.U. after    8 cycles
 SCF Done:  E(RB3LYP) =  -269.886682813     A.U. after   14 cycles
 SCF Done:  E(RB3LYP) =  -269.886685542     A.U. after    9 cycles
 SCF Done:  E(RB3LYP) =  -269.886691619     A.U. after    9 cycles
 SCF Done:  E(RB3LYP) =  -269.886697602     A.U. after    9 cycles
 SCF Done:  E(RB3LYP) =  -269.886699853     A.U. after    8 cycles
 SCF Done:  E(RB3LYP) =  -269.886694709     A.U. after    9 cycles
 SCF Done:  E(RB3LYP) =  -269.886691485     A.U. after    9 cycles
 SCF Done:  E(RB3LYP) =  -269.886694331     A.U. after    9 cycles
 SCF Done:  E(RB3LYP) =  -269.886968470     A.U. after    8 cycles
 SCF Done:  E(RB3LYP) =  -269.886972841     A.U. after    8 cycles
 SCF Done:  E(RB3LYP) =  -269.886977026     A.U. after    8 cycles
 SCF Done:  E(RB3LYP) =  -269.886981014     A.U. after    8 cycles
 SCF Done:  E(RB3LYP) =  -269.886984804     A.U. after    8 cycles
 SCF Done:  E(RB3LYP) =  -269.886988419     A.U. after    8 cycles
 SCF Done:  E(RB3LYP) =  -269.886991966     A.U. after    8 cycles
 SCF Done:  E(RB3LYP) =  -269.886994914     A.U. after    8 cycles
 SCF Done:  E(RB3LYP) =  -269.886996848     A.U. after    8 cycles
 Optimization completed.
    -- Stationary point found.
 Normal termination of Gaussian 09 at Fri Apr 27 22:34:31 2018.

 ----------------------------------------------------------------------
 #N Geom=AllCheck Guess=TCheck SCRF=Check GenChk RB3LYP/6-31++G(d,p) Fr
 eq
 ----------------------------------------------------------------------

 change step tp 2 and use calcfc
 -------------------------------
 Z-Matrix taken from the checkpoint file:
 H3O-term-field-step.chk
 Charge =  1 Multiplicity = 1

                         Standard orientation:
 ---------------------------------------------------------------------
 Center     Atomic      Atomic             Coordinates (Angstroms)
 Number     Number       Type             X           Y           Z
 ---------------------------------------------------------------------
      1          6           0       -0.344325   -0.787892   -0.221926
      2          8           0       -2.232404    0.115595    0.098982
      3          1           0        0.161925    2.174032    0.246424
      4          1           0        1.893758    1.809592    0.231864
      5          1           0        0.629544    0.047260    1.523694
      6          1           0        1.787135   -1.591126    0.494168
      7          1           0       -0.698092   -1.674546    0.289991
      8          1           0       -3.005340   -0.460918    0.206886
      9          1           0       -2.497073    0.809760   -0.525477
     10          1           0       -0.471588   -0.727264   -1.295863
     11          6           0        0.915942    1.468864   -0.118029
     12          6           0        0.622469    0.102421    0.434715
     13          8           0        1.497441   -0.935176   -0.165112
     14          1           0        0.914922    1.469496   -1.211205
 ---------------------------------------------------------------------

 SCF Done:  E(RB3LYP) =  -269.886996848     A.U. after    1 cycles

 The electronic state is 1-A.
 Alpha  occ. eigenvalues --  -19.41538 -19.38669 -10.48781 -10.46466 -10.35669
 Alpha  occ. eigenvalues --   -1.27514  -1.23384  -0.99233  -0.90205  -0.80191
 Alpha  occ. eigenvalues --   -0.76226  -0.75005  -0.66906  -0.65868  -0.63201
 Alpha  occ. eigenvalues --   -0.60258  -0.58577  -0.55778  -0.54954  -0.54018
 Alpha  occ. eigenvalues --   -0.51893
 Alpha virt. eigenvalues --   -0.24766  -0.17792  -0.15353  -0.12608  -0.12321
 Alpha virt. eigenvalues --   -0.11326  -0.09493  -0.08638  -0.07903  -0.07338
 Alpha virt. eigenvalues --   -0.06758  -0.04393  -0.04218  -0.03436  -0.02660

 Mulliken atomic charges:
              1
     1  C   -0.055473
     2  O   -0.646121
     3  H    0.184578
     4  H    0.202269
     5  H    0.198566
     6  H    0.434716
     7  H    0.216753
     8  H    0.419258
     9  H    0.409343
    10  H    0.268896
    11  C   -0.453347
    12  C   -0.039407
    13  O   -0.343240
    14  H    0.203208
 Sum of Mulliken atomic charges =   1.00000

 Dipole moment (field-independent basis, Debye):
    X=             -2.6330    Y=             -1.6348    Z=              0.2777  Tot=              3.1117
 Quadrupole moment (field-independent basis, Debye-Ang):
   XX=            -12.2174   YY=            -20.9478   ZZ=            -27.4915
   XY=             -0.4307   XZ=              5.5261   YZ=             -3.4545

  Exact polarizability:  58.321  -2.171  46.003   0.980  -0.461  38.021
 Approx polarizability:  81.273  -6.964  59.180  -0.241  -0.257  52.603

 ******    1 imaginary frequencies (negative Signs) ******

                     1                      2                      3
                     A                      A                      A
 Frequencies --  -313.0155               112.2282               152.2573
 Red. masses --     6.0988                 1.3981                 1.8075
 Frc consts  --     0.3521                 0.0104                 0.0247
 IR Inten    --   307.1127                30.2427                26.8095

                     4                      5                      6
                     A                      A                      A
 Frequencies --   186.6151               238.0568               293.7560
 Red. masses --     1.8408                 1.3739                 6.3065
 Frc consts  --     0.0378                 0.0459                 0.3206
 IR Inten    --     2.4795                 1.7727                10.6032

                     7                      8                      9
                     A                      A                      A
 Frequencies --   380.1784               410.5801               468.5058
 Red. masses --     2.0559                 2.4213                 1.2426
 Frc consts  --     0.1751                 0.2405                 0.1607
 IR Inten    --     3.6158                 5.1473               260.7475

                    10                     11                     12
                     A                      A                      A
 Frequencies --   545.4366               670.0991               825.3003
 Red. masses --     1.1294                 1.1457                 3.1610
 Frc consts  --     0.1980                 0.3031                 1.2685
 IR Inten    --    23.1099                86.5566                58.2021

                    13                     14                     15
                     A                      A                      A
 Frequencies --   863.7842               908.3930              1004.6562
 Red. masses --     1.6582                 1.5508                 1.0751
 Frc consts  --     0.7289                 0.7540                 0.6393
 IR Inten    --    14.6590                23.5057                 4.0841

                    16                     17                     18
                     A                      A                      A
 Frequencies --  1038.9754              1097.3150              1160.6587
 Red. masses --     1.2255                 1.4761                 1.1670
 Frc consts  --     0.7794                 1.0472                 0.9262
 IR Inten    --     4.8916                59.5906                 7.3316

                    19                     20                     21
                     A                      A                      A
 Frequencies --  1222.6082              1241.0611              1305.4689
 Red. masses --     1.5033                 1.6162                 1.4245
 Frc consts  --     1.3240                 1.4667                 1.4304
 IR Inten    --     3.5575                14.8349                 8.1417

                    22                     23                     24
                     A                      A                      A
 Frequencies --  1407.2077              1441.4322              1476.8298
 Red. masses --     1.2463                 1.4000                 1.1053
 Frc consts  --     1.4541                 1.7138                 1.4204
 IR Inten    --     1.6706                14.8711                12.4971

                    25                     26                     27
                     A                      A                      A
 Frequencies --  1497.5549              1504.0440              1637.8182
 Red. masses --     1.0598                 1.3558                 1.0866
 Frc consts  --     1.4003                 1.8070                 1.7173
 IR Inten    --    19.3820                16.6287                89.8390

                    28                     29                     30
                     A                      A                      A
 Frequencies --  3061.2606              3137.5779              3144.1166
 Red. masses --     1.0360                 1.1004                 1.0981
 Frc consts  --     5.7199                 6.3823                 6.3954
 IR Inten    --     0.3672                 0.3122                 0.9661

                    31                     32                     33
                     A                      A                      A
 Frequencies --  3157.8614              3199.2467              3325.7738
 Red. masses --     1.0996                 1.0538                 1.1269
 Frc consts  --     6.4608                 6.3548                 7.3439
 IR Inten    --     3.0970                 3.9081                 7.7713

                    34                     35                     36
                     A                      A                      A
 Frequencies --  3746.7867              3753.9974              3859.8456
 Red. masses --     1.0661                 1.0457                 1.0843
 Frc consts  --     8.8183                 8.6826                 9.5182
 IR Inten    --   244.8545                61.4977               150.6713

 - Thermochemistry -
 -------------------
 Temperature   298.150 Kelvin.  Pressure   1.00000 Atm.
 Atom     1 has atomic number  6 and mass  12.00000

 Molecular mass:    77.06025 amu.
 Principal axes and moments of inertia in atomic units:
                           1         2         3
     Eigenvalues --   265.70419 592.31070 787.89583
           X            0.99928   0.03484   0.01508
           Y           -0.03440   0.99901  -0.02813
           Z           -0.01605   0.02759   0.99949
 This molecule is an asymmetric top.
 Rotational symmetry number  1.
 Rotational temperatures (Kelvin)      0.32598     0.14623     0.10993
 Rotational constants (GHZ):           6.79229     3.04695     2.29058
    1 imaginary frequencies ignored.
 Zero-point vibrational energy     319865.2 (Joules/Mol)
                                   76.44962 (Kcal/Mol)
 Warning -- explicit consideration of   9 degrees of freedom as
           vibrations may cause significant error
 Vibrational temperatures:    161.47   219.06   268.50   342.51   422.65
          (Kelvin)            546.99   590.73   674.07   784.76   964.12
                             1187.42  1242.79  1306.97  1445.47  1494.85
                             1578.79  1669.93  1759.06  1785.61  1878.28
                             2024.66  2073.90  2124.83  2154.64  2163.98
                             2356.45  4404.47  4514.27  4523.68  4543.45
                             4603.00  4785.04  5390.78  5401.16  5553.45

 Zero-point correction=                           0.121830 (Hartree/Particle)
 Thermal correction to Energy=                    0.129092
 Thermal correction to Enthalpy=                  0.130036
 Thermal correction to Gibbs Free Energy=         0.091451
 Sum of electronic and zero-point Energies=           -269.765167
 Sum of electronic and thermal Energies=              -269.757905
 Sum of electronic and thermal Enthalpies=            -269.756961
 Sum of electronic and thermal Free Energies=         -269.795546

                     E (Thermal)             CV                S
                      KCal/Mol        Cal/Mol-Kelvin    Cal/Mol-Kelvin
 Total                   81.006             25.304             81.210
 Electronic               0.000              0.000              0.000
 Translational            0.889              2.981             38.941
 Rotational               0.889              2.981             26.319
 Vibrational             79.229             19.343             15.949
 Vibration     1          0.607              1.939              3.230
 Vibration     2          0.619              1.900              2.644
 Vibration     3          0.632              1.858              2.261
 Vibration     4          0.656              1.782              1.817
 Vibration     5          0.689              1.685              1.452
 Vibration     6          0.750              1.512              1.038
 Vibration     7          0.775              1.447              0.925
 Vibration     8          0.826              1.320              0.742
 Vibration     9          0.901              1.150              0.554

 Normal termination of Gaussian 09 at Fri Apr 27 22:35:01 2018.
