 Gaussian 09, Revision B.01,
 Gaussian 09:  EM64L-G09RevB.01 12-Aug-2010

 ----------------------------------------------------------------------
 # field=z+25 opt=(ts,noeigen,calcfc,z-matrix,tight) freq b3lyp/6-31++g
 (d,p)
 ----------------------------------------------------------------------

 -----------
 OH-BACK-MID
 -----------
 Symbolic Z-matrix:
 Charge = -1 Multiplicity = 1

 SCF Done:  E(RB3LYP) =  -268.937827860     A.U. after   15 cycles
 SCF Done:  E(RB3LYP) =  -268.938446963     A.U. after   12 cycles
 SCF Done:  E(RB3LYP) =  -268.938975134     A.U. after   12 cycles
 SCF Done:  E(RB3LYP) =  -268.939471210     A.U. after   12 cycles
 SCF Done:  E(RB3LYP) =  -268.939878632     A.U. after   12 cycles
 SCF Done:  E(RB3LYP) =  -268.940126829     A.U. after   12 cycles
 SCF Done:  E(RB3LYP) =  -268.940214495     A.U. after   11 cycles
 SCF Done:  E(RB3LYP) =  -268.940229222     A.U. after   11 cycles
 SCF Done:  E(RB3LYP) =  -268.940230657     A.U. after   10 cycles
 SCF Done:  E(RB3LYP) =  -268.940231449     A.U. after    9 cycles
 SCF Done:  E(RB3LYP) =  -268.940231371     A.U. after    8 cycles
 SCF Done:  E(RB3LYP) =  -268.940231363     A.U. after    7 cycles
 SCF Done:  E(RB3LYP) =  -268.940231354     A.U. after    6 cycles
 Optimization completed.
    -- Stationary point found.
 Normal termination of Gaussian 09 at Thu Apr 26 21:40:18 2018.

 ----------------------------------------------------------------------
 #N Geom=AllCheck Guess=TCheck SCRF=Check GenChk RB3LYP/6-31++G(d,p) Fr
 eq
 ----------------------------------------------------------------------

 OH-BACK-MID
 -----------
 Z-Matrix taken from the checkpoint file:
 OH-mid-t2-2.chk
 Charge = -1 Multiplicity = 1

                         Standard orientation:
 ---------------------------------------------------------------------
 Center     Atomic      Atomic             Coordinates (Angstroms)
 Number     Number       Type             X           Y           Z
 ---------------------------------------------------------------------
      1          6           0       -0.057720    0.078015   -0.349340
      2          8           0        2.099873   -0.511805   -0.006017
      3          6           0       -0.855127   -0.879895    0.390809
      4          6           0        0.252993    1.446595    0.176861
      5          1           0        2.249931   -1.416175   -0.320662
      6          1           0        0.163094   -0.144577   -1.381228
      7          1           0       -0.788210   -1.935733    0.082691
      8          1           0       -0.821211   -0.799892    1.490919
      9          1           0       -0.144759    1.566080    1.191176
     10          1           0       -0.194650    2.222165   -0.457352
     11          1           0        1.340432    1.559469    0.194926
     12          8           0       -1.830561   -0.103148   -0.257789
 ---------------------------------------------------------------------

 SCF Done:  E(RB3LYP) =  -268.940231354     A.U. after    2 cycles

 The electronic state is 1-A.
 Alpha  occ. eigenvalues --  -18.94661 -18.87053 -10.07723 -10.06252 -10.02418
 Alpha  occ. eigenvalues --   -0.81594  -0.67214  -0.58606  -0.49179  -0.41631
 Alpha  occ. eigenvalues --   -0.32022  -0.28082  -0.25739  -0.23128  -0.20435
 Alpha  occ. eigenvalues --   -0.18732  -0.15674  -0.10844  -0.07352  -0.02489
 Alpha  occ. eigenvalues --   -0.01992
 Alpha virt. eigenvalues --    0.10896   0.12317   0.13330   0.14804   0.15769
 Alpha virt. eigenvalues --    0.16249   0.16794   0.18621   0.20690   0.21462
 Alpha virt. eigenvalues --    0.23555   0.23672   0.25136   0.25827   0.26289

 Mulliken atomic charges:
              1
     1  C    0.589742
     2  O   -0.968366
     3  C   -0.318325
     4  C   -0.773048
     5  H    0.250376
     6  H    0.191093
     7  H    0.075918
     8  H    0.053954
     9  H    0.142012
    10  H    0.121565
    11  H    0.180001
    12  O   -0.544923
 Sum of Mulliken atomic charges =  -1.00000

 Dipole moment (field-independent basis, Debye):
    X=             -2.6026    Y=              0.5444    Z=             -0.3840  Tot=              2.6865
 Quadrupole moment (field-independent basis, Debye-Ang):
   XX=            -63.8705   YY=            -34.6108   ZZ=            -35.8726
   XY=              1.7949   XZ=             -3.2066   YZ=              0.8954

  Exact polarizability:  88.583  -2.495  63.312  -0.466  -2.949  56.361
 Approx polarizability: 126.942  -5.619  78.077   2.109  -4.022  73.972

 ******    1 imaginary frequencies (negative Signs) ******

                     1                      2                      3
                     A                      A                      A
 Frequencies --  -456.2458               116.3004               176.5263
 Red. masses --     6.3072                 1.0830                 2.9781
 Frc consts  --     0.7735                 0.0086                 0.0547
 IR Inten    --   639.3076                 3.5052                65.6835

                     4                      5                      6
                     A                      A                      A
 Frequencies --   202.4794               223.9626               288.6981
 Red. masses --     1.3037                 2.5610                 9.4751
 Frc consts  --     0.0315                 0.0757                 0.4653
 IR Inten    --    60.4442                26.0891                18.0384

                     7                      8                      9
                     A                      A                      A
 Frequencies --   316.4993               409.5002               509.7854
 Red. masses --     3.0196                 2.0620                 1.2216
 Frc consts  --     0.1782                 0.2037                 0.1870
 IR Inten    --    29.7845                 5.8279               112.7677

                    10                     11                     12
                     A                      A                      A
 Frequencies --   864.5118               918.0256               976.7855
 Red. masses --     1.7247                 1.2580                 1.1216
 Frc consts  --     0.7595                 0.6247                 0.6305
 IR Inten    --    14.3699                 4.9259                 3.4648

                    13                     14                     15
                     A                      A                      A
 Frequencies --  1000.7131              1078.5048              1125.6090
 Red. masses --     1.9273                 2.1665                 1.2611
 Frc consts  --     1.1371                 1.4847                 0.9414
 IR Inten    --    11.4377               115.7872                 3.0472

                    16                     17                     18
                     A                      A                      A
 Frequencies --  1185.6722              1216.6298              1283.5867
 Red. masses --     1.7289                 1.4480                 1.3773
 Frc consts  --     1.4320                 1.2628                 1.3370
 IR Inten    --     0.4057                14.2184                 1.0241

                    19                     20                     21
                     A                      A                      A
 Frequencies --  1376.6417              1435.0445              1477.6174
 Red. masses --     1.2638                 1.7383                 1.0740
 Frc consts  --     1.4112                 2.1091                 1.3816
 IR Inten    --     6.7558                21.2673                 0.0687

                    22                     23                     24
                     A                      A                      A
 Frequencies --  1498.6393              1537.8448              2942.6594
 Red. masses --     1.1002                 1.4034                 1.0543
 Frc consts  --     1.4558                 1.9555                 5.3791
 IR Inten    --     3.6408                 5.6892               155.0243

                    25                     26                     27
                     A                      A                      A
 Frequencies --  2980.4658              3020.6477              3079.5623
 Red. masses --     1.1083                 1.0372                 1.0997
 Frc consts  --     5.8005                 5.5760                 6.1445
 IR Inten    --   133.1747                70.7522                52.4609

                    28                     29                     30
                     A                      A                      A
 Frequencies --  3123.5180              3280.1352              3777.5061
 Red. masses --     1.1002                 1.0923                 1.0670
 Frc consts  --     6.3240                 6.9241                 8.9705
 IR Inten    --     7.3201                 7.8615                28.3911

 - Thermochemistry -
 -------------------
 Temperature   298.150 Kelvin.  Pressure   1.00000 Atm.
 Atom     1 has atomic number  6 and mass  12.00000

 Molecular mass:    75.04460 amu.
 Principal axes and moments of inertia in atomic units:
                           1         2         3
     Eigenvalues --   235.08621 545.12215 704.18360
           X            0.99987   0.00509  -0.01535
           Y           -0.00493   0.99994   0.01022
           Z            0.01540  -0.01015   0.99983
 This molecule is an asymmetric top.
 Rotational symmetry number  1.
 Rotational temperatures (Kelvin)      0.36843     0.15889     0.12300
 Rotational constants (GHZ):           7.67693     3.31071     2.56288
    1 imaginary frequencies ignored.
 Zero-point vibrational energy     247771.0 (Joules/Mol)
                                   59.21868 (Kcal/Mol)
 Warning -- explicit consideration of   8 degrees of freedom as
           vibrations may cause significant error
 Vibrational temperatures:    167.33   253.98   291.32   322.23   415.37
          (Kelvin)            455.37   589.18   733.47  1243.84  1320.83
                             1405.37  1439.80  1551.73  1619.50  1705.92
                             1750.46  1846.79  1980.68  2064.71  2125.96
                             2156.20  2212.61  4233.83  4288.22  4346.03
                             4430.80  4494.04  4719.38  5434.98

 Zero-point correction=                           0.094371 (Hartree/Particle)
 Thermal correction to Energy=                    0.101252
 Thermal correction to Enthalpy=                  0.102196
 Thermal correction to Gibbs Free Energy=         0.064378
 Sum of electronic and zero-point Energies=           -268.845860
 Sum of electronic and thermal Energies=              -268.838979
 Sum of electronic and thermal Enthalpies=            -268.838035
 Sum of electronic and thermal Free Energies=         -268.875853

                     E (Thermal)             CV                S
                      KCal/Mol        Cal/Mol-Kelvin    Cal/Mol-Kelvin
 Total                   63.537             22.784             79.594
 Electronic               0.000              0.000              0.000
 Translational            0.889              2.981             38.862
 Rotational               0.889              2.981             26.004
 Vibrational             61.759             16.823             14.728
 Vibration     1          0.608              1.936              3.161
 Vibration     2          0.628              1.871              2.365
 Vibration     3          0.639              1.836              2.110
 Vibration     4          0.649              1.805              1.927
 Vibration     5          0.685              1.695              1.482
 Vibration     6          0.703              1.642              1.328
 Vibration     7          0.774              1.450              0.928
 Vibration     8          0.865              1.228              0.634

 Normal termination of Gaussian 09 at Thu Apr 26 21:40:38 2018.
