 Gaussian 09, Revision B.01,
 Gaussian 09:  EM64L-G09RevB.01 12-Aug-2010

 ----------------------------------------------------------------------
 # field=z+25 nosymm opt=(ts,calcall,maxcycle=300,noeigen,z-matrix) fre
 q rb3lyp/6-31++g(d,p)
 ----------------------------------------------------------------------

 ------------
 OH-BACK-TERM
 ------------
 Symbolic Z-matrix:
 Charge = -1 Multiplicity = 1

 SCF Done:  E(RB3LYP) =  -268.948442032     A.U. after   15 cycles
 SCF Done:  E(RB3LYP) =  -268.948015920     A.U. after   12 cycles
 SCF Done:  E(RB3LYP) =  -268.947160808     A.U. after   12 cycles
 SCF Done:  E(RB3LYP) =  -268.947359290     A.U. after   11 cycles
 SCF Done:  E(RB3LYP) =  -268.947360349     A.U. after   10 cycles
 Optimization completed on the basis of negligible forces.
    -- Stationary point found.
 ******    1 imaginary frequencies (negative Signs) ******
    1 imaginary frequencies ignored.
 Normal termination of Gaussian 09 at Mon Mar 12 15:36:08 2018.

 ----------------------------------------------------------------------
 #N Geom=AllCheck Guess=TCheck SCRF=Check GenChk RB3LYP/6-31++G(d,p) Fr
 eq
 ----------------------------------------------------------------------

 OH-BACK-TERM
 ------------
 Z-Matrix taken from the checkpoint file:
 OH-term-field-2.chk
 Charge = -1 Multiplicity = 1

                          Input orientation:
 ---------------------------------------------------------------------
 Center     Atomic      Atomic             Coordinates (Angstroms)
 Number     Number       Type             X           Y           Z
 ---------------------------------------------------------------------
      1          6           0        0.000000    0.000000    0.000000
      2          8           0        0.000000    0.000000    2.208719
      3          1           0        1.072838    0.000000    0.093937
      4          1           0        0.045737   -0.944578    2.420790
      5          1           0       -0.547295    0.915069    0.146712
      6          1           0       -1.758272   -1.200913   -0.415575
      7          1           0       -0.420964   -3.211183   -1.207430
      8          1           0       -0.280665   -2.971879    0.555809
      9          1           0        1.045323   -2.473356   -0.528997
     10          6           0       -0.043862   -2.538578   -0.425710
     11          6           0       -0.666729   -1.157386   -0.576107
     12          8           0       -0.268753   -0.417781   -1.698471
 ---------------------------------------------------------------------

 SCF Done:  E(RB3LYP) =  -268.947360349     A.U. after    1 cycles

 Alpha  occ. eigenvalues --  -18.94725 -18.88080 -10.07231 -10.06586 -10.03997
 Alpha  occ. eigenvalues --   -0.82097  -0.68091  -0.58613  -0.50885  -0.41354
 Alpha  occ. eigenvalues --   -0.32474  -0.28551  -0.27217  -0.24087  -0.20735
 Alpha  occ. eigenvalues --   -0.18443  -0.16907  -0.12136  -0.07500  -0.03239
 Alpha  occ. eigenvalues --   -0.02609
 Alpha virt. eigenvalues --    0.10527   0.12921   0.13065   0.13913   0.15633
 Alpha virt. eigenvalues --    0.16064   0.16791   0.18813   0.20968   0.21183
 Alpha virt. eigenvalues --    0.23524   0.24163   0.24419   0.25056   0.25818

 Mulliken atomic charges:
              1
     1  C   -0.177973
     2  O   -0.926787
     3  H    0.166582
     4  H    0.218731
     5  H    0.172751
     6  H    0.063247
     7  H    0.141787
     8  H    0.104814
     9  H    0.144669
    10  C   -0.526561
    11  C    0.150690
    12  O   -0.531952
 Sum of Mulliken atomic charges =  -1.00000

 Dipole moment (field-independent basis, Debye):
    X=              0.4928    Y=              0.0097    Z=             -3.6443  Tot=              3.6775
 Quadrupole moment (field-independent basis, Debye-Ang):
   XX=            -35.8990   YY=            -35.8156   ZZ=            -64.6527
   XY=             -0.1336   XZ=             -0.6552   YZ=             -4.4146

  Exact polarizability:  57.099   1.893  62.847   2.970   5.843  92.549
 Approx polarizability:  73.778   3.499  77.527   3.196   3.850 131.245

 ******    1 imaginary frequencies (negative Signs) ******

                     1                      2                      3
                     A                      A                      A
 Frequencies --  -460.7608                64.5495               140.7835
 Red. masses --     9.7046                 1.0829                 3.5472
 Frc consts  --     1.2139                 0.0027                 0.0414
 IR Inten    --   805.6643                69.3852                14.1214

                     4                      5                      6
                     A                      A                      A
 Frequencies --   193.9184               241.7631               298.8718
 Red. masses --     1.7092                 1.6161                 7.0644
 Frc consts  --     0.0379                 0.0557                 0.3718
 IR Inten    --    10.1305                 5.5078                 6.6211

                     7                      8                      9
                     A                      A                      A
 Frequencies --   376.5900               428.8958               521.1514
 Red. masses --     2.0592                 2.3968                 1.2244
 Frc consts  --     0.1721                 0.2598                 0.1959
 IR Inten    --    29.4503                10.3663                79.7505

                    10                     11                     12
                     A                      A                      A
 Frequencies --   813.4228               874.0487               924.8262
 Red. masses --     1.4341                 1.4565                 1.8932
 Frc consts  --     0.5591                 0.6556                 0.9540
 IR Inten    --     6.7412                14.7480                38.7256

                    13                     14                     15
                     A                      A                      A
 Frequencies --   966.7862              1019.1489              1098.7150
 Red. masses --     1.1006                 1.2997                 1.7350
 Frc consts  --     0.6061                 0.7953                 1.2340
 IR Inten    --     3.6564                 8.1869                26.9018

                    16                     17                     18
                     A                      A                      A
 Frequencies --  1159.6378              1219.3357              1287.8131
 Red. masses --     2.0210                 1.6568                 1.4300
 Frc consts  --     1.6013                 1.4513                 1.3973
 IR Inten    --    15.8195                21.9122                 2.9003

                    19                     20                     21
                     A                      A                      A
 Frequencies --  1375.6909              1410.0315              1468.1756
 Red. masses --     1.2370                 1.3649                 1.2285
 Frc consts  --     1.3793                 1.5988                 1.5602
 IR Inten    --     2.5563                22.2708                15.5788

                    22                     23                     24
                     A                      A                      A
 Frequencies --  1489.8863              1495.7249              2943.0068
 Red. masses --     1.0757                 1.4203                 1.0831
 Frc consts  --     1.4069                 1.8721                 5.5273
 IR Inten    --     3.0628                19.1436               118.6166

                    25                     26                     27
                     A                      A                      A
 Frequencies --  3007.7275              3069.8117              3092.7482
 Red. masses --     1.0350                 1.1011                 1.1008
 Frc consts  --     5.5168                 6.1136                 6.2038
 IR Inten    --    57.4243                52.4476                54.3307

                    28                     29                     30
                     A                      A                      A
 Frequencies --  3238.7194              3362.2932              3777.9183
 Red. masses --     1.0515                 1.1268                 1.0672
 Frc consts  --     6.4983                 7.5051                 8.9740
 IR Inten    --     7.5770                 4.0412                29.6412

 - Thermochemistry -
 -------------------
 Temperature   298.150 Kelvin.  Pressure   1.00000 Atm.
 Atom     1 has atomic number  6 and mass  12.00000

 Molecular mass:    75.04460 amu.
 Principal axes and moments of inertia in atomic units:
                           1         2         3
     Eigenvalues --   252.92893 577.06024 767.22533
           X            0.08575  -0.04599   0.99525
           Y            0.38192   0.92415   0.00980
           Z            0.92021  -0.37926  -0.09681
 This molecule is an asymmetric top.
 Rotational symmetry number  1.
 Rotational temperatures (Kelvin)      0.34244     0.15009     0.11289
 Rotational constants (GHZ):           7.13537     3.12747     2.35230
    1 imaginary frequencies ignored.
 Zero-point vibrational energy     247399.7 (Joules/Mol)
                                   59.12994 (Kcal/Mol)
 Warning -- explicit consideration of   8 degrees of freedom as
           vibrations may cause significant error
 Vibrational temperatures:     92.87   202.56   279.00   347.84   430.01
          (Kelvin)            541.83   617.08   749.82  1170.33  1257.56
                             1330.62  1390.99  1466.33  1580.80  1668.46
                             1754.35  1852.87  1979.31  2028.72  2112.37
                             2143.61  2152.01  4234.33  4327.44  4416.77
                             4449.77  4659.79  4837.58  5435.58

 Zero-point correction=                           0.094230 (Hartree/Particle)
 Thermal correction to Energy=                    0.101203
 Thermal correction to Enthalpy=                  0.102147
 Thermal correction to Gibbs Free Energy=         0.063644
 Sum of electronic and zero-point Energies=           -268.853131
 Sum of electronic and thermal Energies=              -268.846157
 Sum of electronic and thermal Enthalpies=            -268.845213
 Sum of electronic and thermal Free Energies=         -268.883717

                     E (Thermal)             CV                S
                      KCal/Mol        Cal/Mol-Kelvin    Cal/Mol-Kelvin
 Total                   63.506             22.996             81.037
 Electronic               0.000              0.000              0.000
 Translational            0.889              2.981             38.862
 Rotational               0.889              2.981             26.218
 Vibrational             61.728             17.035             15.957
 Vibration     1          0.597              1.971              4.313
 Vibration     2          0.615              1.913              2.793
 Vibration     3          0.635              1.848              2.190
 Vibration     4          0.658              1.776              1.790
 Vibration     5          0.692              1.676              1.423
 Vibration     6          0.747              1.520              1.053
 Vibration     7          0.790              1.407              0.862
 Vibration     8          0.876              1.203              0.607

 Optimization completed on the basis of negligible forces.
    -- Stationary point found.
 Normal termination of Gaussian 09 at Mon Mar 12 15:36:30 2018.
