 Gaussian 09, Revision B.01,
 Gaussian 09:  EM64L-G09RevB.01 12-Aug-2010

 ----------------------------------------------------------------------
 # field=z-10 freq opt=(ts,noeigen,calcall,z-matrix) nosymm rb3lyp/6-31
 ++g(d,p)
 ----------------------------------------------------------------------

 -----------
 OH-BACK-MID
 -----------
 Symbolic Z-matrix:
 Charge =  0 Multiplicity = 1

 SCF Done:  E(RB3LYP) =  -269.488886777     A.U. after   16 cycles
 SCF Done:  E(RB3LYP) =  -269.492608021     A.U. after   13 cycles
 SCF Done:  E(RB3LYP) =  -269.492199304     A.U. after   13 cycles
 SCF Done:  E(RB3LYP) =  -269.492389880     A.U. after   13 cycles
 SCF Done:  E(RB3LYP) =  -269.492204700     A.U. after   14 cycles
 SCF Done:  E(RB3LYP) =  -269.492285043     A.U. after   13 cycles
 SCF Done:  E(RB3LYP) =  -269.492794303     A.U. after   13 cycles
 SCF Done:  E(RB3LYP) =  -269.492771048     A.U. after   12 cycles
 SCF Done:  E(RB3LYP) =  -269.492859182     A.U. after   11 cycles
 SCF Done:  E(RB3LYP) =  -269.492860165     A.U. after   10 cycles
 Optimization completed.
    -- Stationary point found.
 ******    1 imaginary frequencies (negative Signs) ******
    1 imaginary frequencies ignored.
 Normal termination of Gaussian 09 at Tue Feb 27 15:39:15 2018.

 ----------------------------------------------------------------------
 #N Geom=AllCheck Guess=TCheck SCRF=Check GenChk RB3LYP/6-31++G(d,p) Fr
 eq
 ----------------------------------------------------------------------

 OH-BACK-MID
 -----------
 Z-Matrix taken from the checkpoint file:
 H2O-mid-field.chk
 Charge =  0 Multiplicity = 1

                          Input orientation:
 ---------------------------------------------------------------------
 Center     Atomic      Atomic             Coordinates (Angstroms)
 Number     Number       Type             X           Y           Z
 ---------------------------------------------------------------------
      1          6           0        0.000000    0.000000    0.000000
      2          8           0        0.000000    0.000000    2.285847
      3          1           0        1.780746    0.000000   -1.182776
      4          1           0        1.610615   -1.432217   -0.130401
      5          1           0       -0.750229   -0.759071    0.206192
      6          1           0       -1.211708    1.328842   -1.056695
      7          1           0        0.315304    2.068091   -0.445796
      8          1           0        0.970015    0.191501    1.943034
      9          1           0       -1.056235    1.728486    0.649237
     10          1           0        0.015998   -0.828091    2.786501
     11          6           0        1.433174   -0.343635   -0.187479
     12          6           0       -0.494060    1.373008   -0.220484
     13          8           0        1.962130    0.387173    0.865647
 ---------------------------------------------------------------------

 SCF Done:  E(RB3LYP) =  -269.492860165     A.U. after    1 cycles

 Alpha  occ. eigenvalues --  -19.15082 -19.09892 -10.29818 -10.24206 -10.21570
 Alpha  occ. eigenvalues --   -1.00123  -0.95437  -0.80819  -0.69197  -0.59755
 Alpha  occ. eigenvalues --   -0.52212  -0.50497  -0.45903  -0.44795  -0.41187
 Alpha  occ. eigenvalues --   -0.40431  -0.38998  -0.35833  -0.31421  -0.23674
 Alpha  occ. eigenvalues --   -0.23298
 Alpha virt. eigenvalues --   -0.11181  -0.01808  -0.00018   0.00935   0.01754
 Alpha virt. eigenvalues --    0.03755   0.04230   0.05341   0.06342   0.07284
 Alpha virt. eigenvalues --    0.08589   0.09768   0.11310   0.11743   0.11958

 Mulliken atomic charges:
              1
     1  C    0.401351
     2  O   -0.732539
     3  H    0.122664
     4  H    0.123422
     5  H    0.209559
     6  H    0.155185
     7  H    0.220462
     8  H    0.441239
     9  H    0.219813
    10  H    0.355134
    11  C   -0.239274
    12  C   -0.678156
    13  O   -0.598860
 Sum of Mulliken atomic charges =   0.00000

 Dipole moment (field-independent basis, Debye):
    X=             -3.1612    Y=             -1.7686    Z=             -2.1743  Tot=              4.2248
 Quadrupole moment (field-independent basis, Debye-Ang):
   XX=            -39.8239   YY=            -29.9711   ZZ=            -33.1219
   XY=             -2.8832   XZ=             -2.2171   YZ=             -5.0624

  Exact polarizability:  62.974  -4.097  48.826   0.483  -3.391  62.828
 Approx polarizability: 105.984   1.864  64.712   9.938  -1.401  91.455

 ******    1 imaginary frequencies (negative Signs) ******

                     1                      2                      3
                     A                      A                      A
 Frequencies --  -473.1298               134.1899               178.4866
 Red. masses --     3.2891                 1.9242                 1.4589
 Frc consts  --     0.4338                 0.0204                 0.0274
 IR Inten    --    39.1977                 4.1775                 4.7912

                     4                      5                      6
                     A                      A                      A
 Frequencies --   240.6898               323.1473               380.0085
 Red. masses --     2.3541                 2.6979                 3.0689
 Frc consts  --     0.0804                 0.1660                 0.2611
 IR Inten    --    17.6925                18.5988                61.8125

                     7                      8                      9
                     A                      A                      A
 Frequencies --   442.7406               496.8277               573.3287
 Red. masses --     3.0325                 1.2539                 1.1358
 Frc consts  --     0.3502                 0.1824                 0.2200
 IR Inten    --    37.2980               132.1612                93.4851

                    10                     11                     12
                     A                      A                      A
 Frequencies --   837.6197               888.6336               926.4744
 Red. masses --     1.5876                 1.3692                 1.5141
 Frc consts  --     0.6563                 0.6370                 0.7657
 IR Inten    --    16.9594                 2.9181                 7.4797

                    13                     14                     15
                     A                      A                      A
 Frequencies --   979.0276              1071.5569              1108.6745
 Red. masses --     1.5178                 4.0784                 1.4354
 Frc consts  --     0.8571                 2.7591                 1.0395
 IR Inten    --    19.1354               196.9585                62.9519

                    16                     17                     18
                     A                      A                      A
 Frequencies --  1162.8207              1171.0394              1226.4445
 Red. masses --     1.3711                 1.5867                 1.3794
 Frc consts  --     1.0923                 1.2820                 1.2225
 IR Inten    --   165.3854                 4.2152                 3.1428

                    19                     20                     21
                     A                      A                      A
 Frequencies --  1336.8113              1379.4530              1399.4079
 Red. masses --     1.2436                 1.2419                 1.3412
 Frc consts  --     1.3093                 1.3924                 1.5475
 IR Inten    --    11.7371                10.9412                32.9237

                    22                     23                     24
                     A                      A                      A
 Frequencies --  1451.4766              1488.0693              1504.4730
 Red. masses --     1.1562                 1.1202                 1.1814
 Frc consts  --     1.4351                 1.4614                 1.5755
 IR Inten    --    10.5339                 1.9905                 7.4480

                    25                     26                     27
                     A                      A                      A
 Frequencies --  1584.9980              2310.1707              2902.7692
 Red. masses --     1.0598                 1.0967                 1.0626
 Frc consts  --     1.5687                 3.4486                 5.2753
 IR Inten    --    73.3153               483.0892                73.4544

                    28                     29                     30
                     A                      A                      A
 Frequencies --  2956.4598              2997.6265              3093.2829
 Red. masses --     1.0917                 1.0535                 1.0792
 Frc consts  --     5.6219                 5.5774                 6.0842
 IR Inten    --    98.0219                 4.8932                 0.3789

                    31                     32                     33
                     A                      A                      A
 Frequencies --  3164.7108              3197.3287              3827.5503
 Red. masses --     1.1012                 1.0912                 1.0657
 Frc consts  --     6.4982                 6.5722                 9.1991
 IR Inten    --     1.8443                14.6506                60.0228

 - Thermochemistry -
 -------------------
 Temperature   298.150 Kelvin.  Pressure   1.00000 Atm.
 Atom     1 has atomic number  6 and mass  12.00000

 Molecular mass:    76.05243 amu.
 Principal axes and moments of inertia in atomic units:
                           1         2         3
     Eigenvalues --   364.65124 384.84207 587.96942
           X            0.32188   0.88191   0.34444
           Y           -0.34935  -0.22749   0.90896
           Z            0.87997  -0.41290   0.23487
 This molecule is an asymmetric top.
 Rotational symmetry number  1.
 Rotational temperatures (Kelvin)      0.23753     0.22506     0.14731
 Rotational constants (GHZ):           4.94923     4.68956     3.06945
    1 imaginary frequencies ignored.
 Zero-point vibrational energy     279545.1 (Joules/Mol)
                                   66.81289 (Kcal/Mol)
 Warning -- explicit consideration of   8 degrees of freedom as
           vibrations may cause significant error
 Vibrational temperatures:    193.07   256.80   346.30   464.94   546.75
          (Kelvin)            637.00   714.82   824.89  1205.15  1278.54
                             1332.99  1408.60  1541.73  1595.13  1673.04
                             1684.86  1764.58  1923.37  1984.72  2013.43
                             2088.35  2141.00  2164.60  2280.46  3323.82
                             4176.43  4253.68  4312.91  4450.54  4553.31
                             4600.24  5506.98

 Zero-point correction=                           0.106473 (Hartree/Particle)
 Thermal correction to Energy=                    0.112828
 Thermal correction to Enthalpy=                  0.113773
 Thermal correction to Gibbs Free Energy=         0.077149
 Sum of electronic and zero-point Energies=           -269.386387
 Sum of electronic and thermal Energies=              -269.380032
 Sum of electronic and thermal Enthalpies=            -269.379088
 Sum of electronic and thermal Free Energies=         -269.415712

                     E (Thermal)             CV                S
                      KCal/Mol        Cal/Mol-Kelvin    Cal/Mol-Kelvin
 Total                   70.801             22.237             77.082
 Electronic               0.000              0.000              0.000
 Translational            0.889              2.981             38.902
 Rotational               0.889              2.981             25.915
 Vibrational             69.023             16.275             12.265
 Vibration     1          0.613              1.919              2.885
 Vibration     2          0.629              1.869              2.344
 Vibration     3          0.658              1.778              1.798
 Vibration     4          0.708              1.629              1.294
 Vibration     5          0.750              1.513              1.039
 Vibration     6          0.802              1.377              0.818
 Vibration     7          0.852              1.257              0.666
 Vibration     8          0.930              1.089              0.498

 Optimization completed.
    -- Stationary point found.
 Normal termination of Gaussian 09 at Tue Feb 27 15:39:39 2018.
