 Gaussian 09, Revision B.01,
 Gaussian 09:  EM64L-G09RevB.01 12-Aug-2010

 ----------------------------------------------------------------------
 # field=z-10 freq opt=(z-matrix,ts,calcfc,noeigen) nosymm rb3lyp/6-31+
 +g(d,p)
 ----------------------------------------------------------------------

 ------------
 OH-BACK-TERM
 ------------
 Symbolic Z-matrix:
 Charge =  0 Multiplicity = 1

 SCF Done:  E(RB3LYP) =  -269.484336896     A.U. after   15 cycles
 SCF Done:  E(RB3LYP) =  -269.487193094     A.U. after   14 cycles
 SCF Done:  E(RB3LYP) =  -269.485088439     A.U. after   14 cycles
 SCF Done:  E(RB3LYP) =  -269.485880288     A.U. after   14 cycles
 SCF Done:  E(RB3LYP) =  -269.486785012     A.U. after   12 cycles
 SCF Done:  E(RB3LYP) =  -269.486607621     A.U. after   12 cycles
 SCF Done:  E(RB3LYP) =  -269.486498822     A.U. after   13 cycles
 SCF Done:  E(RB3LYP) =  -269.486618382     A.U. after   12 cycles
 SCF Done:  E(RB3LYP) =  -269.485719784     A.U. after   12 cycles
 SCF Done:  E(RB3LYP) =  -269.486375643     A.U. after   13 cycles
 SCF Done:  E(RB3LYP) =  -269.487195289     A.U. after   10 cycles
 SCF Done:  E(RB3LYP) =  -269.487195374     A.U. after   11 cycles
 SCF Done:  E(RB3LYP) =  -269.487196067     A.U. after   10 cycles
 SCF Done:  E(RB3LYP) =  -269.487196215     A.U. after    9 cycles
 SCF Done:  E(RB3LYP) =  -269.487065768     A.U. after   12 cycles
 SCF Done:  E(RB3LYP) =  -269.487194411     A.U. after   12 cycles
 SCF Done:  E(RB3LYP) =  -269.487196167     A.U. after   10 cycles
 SCF Done:  E(RB3LYP) =  -269.487196303     A.U. after   10 cycles
 SCF Done:  E(RB3LYP) =  -269.487196375     A.U. after    9 cycles
 Optimization completed.
    -- Stationary point found.
 Normal termination of Gaussian 09 at Tue Feb 27 15:37:49 2018.

 ----------------------------------------------------------------------
 #N Geom=AllCheck Guess=TCheck SCRF=Check GenChk RB3LYP/6-31++G(d,p) Fr
 eq
 ----------------------------------------------------------------------

 OH-BACK-TERM
 ------------
 Z-Matrix taken from the checkpoint file:
 ts
 Charge =  0 Multiplicity = 1

                          Input orientation:
 ---------------------------------------------------------------------
 Center     Atomic      Atomic             Coordinates (Angstroms)
 Number     Number       Type             X           Y           Z
 ---------------------------------------------------------------------
      1          6           0        0.000000    0.000000    0.000000
      2          8           0        0.000000    0.000000    2.203291
      3          1           0        0.906246    0.000000    2.543800
      4          1           0       -0.207642   -0.968665    1.877146
      5          1           0        1.062344   -0.134617   -0.171439
      6          1           0       -0.346642    0.998235    0.242487
      7          1           0       -2.654887   -0.399270    0.714133
      8          1           0       -2.687288   -0.211052   -1.061166
      9          1           0       -2.929924   -1.811393   -0.321107
     10          1           0       -0.622534   -1.583492   -1.272579
     11          6           0       -2.382329   -0.868469   -0.236595
     12          6           0       -0.881484   -1.150741   -0.287101
     13          8           0       -0.391855   -1.932730    0.762318
 ---------------------------------------------------------------------

 SCF Done:  E(RB3LYP) =  -269.487196375     A.U. after    1 cycles

 Alpha  occ. eigenvalues --  -19.16743 -19.11185 -10.29077 -10.25026 -10.18423
 Alpha  occ. eigenvalues --   -1.01708  -0.96606  -0.76626  -0.71086  -0.59098
 Alpha  occ. eigenvalues --   -0.53403  -0.49533  -0.47166  -0.43793  -0.40821
 Alpha  occ. eigenvalues --   -0.38694  -0.37653  -0.35678  -0.33689  -0.24492
 Alpha  occ. eigenvalues --   -0.24245
 Alpha virt. eigenvalues --   -0.11259  -0.01599   0.00123   0.01229   0.02417
 Alpha virt. eigenvalues --    0.03662   0.04290   0.05342   0.06435   0.07284
 Alpha virt. eigenvalues --    0.09016   0.09669   0.10913   0.11926   0.12658

 Mulliken atomic charges:
              1
     1  C   -0.213844
     2  O   -0.673946
     3  H    0.364085
     4  H    0.441727
     5  H    0.202928
     6  H    0.203898
     7  H    0.180742
     8  H    0.130624
     9  H    0.170048
    10  H    0.125441
    11  C   -0.546397
    12  C    0.186036
    13  O   -0.571344
 Sum of Mulliken atomic charges =   0.00000

 Dipole moment (field-independent basis, Debye):
    X=              1.3022    Y=              2.6032    Z=             -1.6955  Tot=              3.3686
 Quadrupole moment (field-independent basis, Debye-Ang):
   XX=            -29.5056   YY=            -40.0253   ZZ=            -33.4100
   XY=              0.2863   XZ=              4.2885   YZ=              1.8114

  Exact polarizability:  52.847   5.898  56.464   6.328   2.732  61.465
 Approx polarizability:  65.589  11.575 102.302   3.582  -4.051  89.664

 ******    1 imaginary frequencies (negative Signs) ******

                     1                      2                      3
                     A                      A                      A
 Frequencies --  -550.8349                92.1075               242.7278
 Red. masses --     3.3972                 3.8330                 1.0456
 Frc consts  --     0.6073                 0.0192                 0.0363
 IR Inten    --    51.1558                 1.1760                 1.0817

                     4                      5                      6
                     A                      A                      A
 Frequencies --   345.1312               402.9291               422.7675
 Red. masses --     2.1371                 4.1669                 3.6901
 Frc consts  --     0.1500                 0.3986                 0.3886
 IR Inten    --     7.4512               122.2191                 8.9352

                     7                      8                      9
                     A                      A                      A
 Frequencies --   465.4644               514.8564               561.9543
 Red. masses --     2.4511                 1.2461                 1.1772
 Frc consts  --     0.3129                 0.1946                 0.2190
 IR Inten    --    50.6125                73.3521                86.3722

                    10                     11                     12
                     A                      A                      A
 Frequencies --   752.3203               841.5940               908.7249
 Red. masses --     1.1240                 2.2984                 1.3819
 Frc consts  --     0.3748                 0.9591                 0.6724
 IR Inten    --     2.5553                 7.2087                 8.0434

                    13                     14                     15
                     A                      A                      A
 Frequencies --   911.9188              1036.7323              1058.6044
 Red. masses --     1.6260                 1.3170                 1.1755
 Frc consts  --     0.7967                 0.8340                 0.7762
 IR Inten    --    46.0237                 2.7326               291.9480

                    16                     17                     18
                     A                      A                      A
 Frequencies --  1142.8919              1154.1143              1176.9188
 Red. masses --     2.1278                 1.8515                 2.0698
 Frc consts  --     1.6376                 1.4530                 1.6892
 IR Inten    --    16.6504                16.2240                12.3027

                    19                     20                     21
                     A                      A                      A
 Frequencies --  1273.3025              1367.4378              1406.3342
 Red. masses --     1.2059                 1.4540                 1.3221
 Frc consts  --     1.1519                 1.6019                 1.5406
 IR Inten    --     4.7673                 8.6399                14.7128

                    22                     23                     24
                     A                      A                      A
 Frequencies --  1477.1150              1492.5145              1501.4179
 Red. masses --     1.1046                 1.1370                 1.0757
 Frc consts  --     1.4200                 1.4922                 1.4288
 IR Inten    --     6.7488                 5.9349                 5.7973

                    25                     26                     27
                     A                      A                      A
 Frequencies --  1616.1725              2357.6176              2917.7783
 Red. masses --     1.0601                 1.0953                 1.0787
 Frc consts  --     1.6315                 3.5869                 5.4108
 IR Inten    --    70.0404               371.1881                61.2626

                    28                     29                     30
                     A                      A                      A
 Frequencies --  3030.2435              3106.0800              3130.7127
 Red. masses --     1.0393                 1.0974                 1.1029
 Frc consts  --     5.6228                 6.2380                 6.3688
 IR Inten    --    27.7477                21.5425                15.5644

                    31                     32                     33
                     A                      A                      A
 Frequencies --  3173.8434              3289.3572              3830.2154
 Red. masses --     1.0531                 1.1209                 1.0660
 Frc consts  --     6.2504                 7.1456                 9.2141
 IR Inten    --     2.3796                 1.3295                75.2026

 - Thermochemistry -
 -------------------
 Temperature   298.150 Kelvin.  Pressure   1.00000 Atm.
 Atom     1 has atomic number  6 and mass  12.00000

 Molecular mass:    76.05243 amu.
 Principal axes and moments of inertia in atomic units:
                           1         2         3
     Eigenvalues --   255.64158 546.82342 569.09402
           X            0.63558  -0.25618   0.72829
           Y            0.30524   0.94986   0.06774
           Z            0.70913  -0.17924  -0.68192
 This molecule is an asymmetric top.
 Rotational symmetry number  1.
 Rotational temperatures (Kelvin)      0.33881     0.15839     0.15220
 Rotational constants (GHZ):           7.05965     3.30041     3.17125
    1 imaginary frequencies ignored.
 Zero-point vibrational energy     281133.8 (Joules/Mol)
                                   67.19259 (Kcal/Mol)
 Warning -- explicit consideration of   8 degrees of freedom as
           vibrations may cause significant error
 Vibrational temperatures:    132.52   349.23   496.57   579.72   608.27
          (Kelvin)            669.70   740.76   808.53  1082.42  1210.86
                             1307.45  1312.05  1491.62  1523.09  1644.36
                             1660.51  1693.32  1832.00  1967.44  2023.40
                             2125.24  2147.39  2160.20  2325.31  3392.08
                             4198.03  4359.84  4468.95  4504.39  4566.45
                             4732.65  5510.82

 Zero-point correction=                           0.107078 (Hartree/Particle)
 Thermal correction to Energy=                    0.113197
 Thermal correction to Enthalpy=                  0.114141
 Thermal correction to Gibbs Free Energy=         0.077935
 Sum of electronic and zero-point Energies=           -269.380118
 Sum of electronic and thermal Energies=              -269.373999
 Sum of electronic and thermal Enthalpies=            -269.373055
 Sum of electronic and thermal Free Energies=         -269.409261

                     E (Thermal)             CV                S
                      KCal/Mol        Cal/Mol-Kelvin    Cal/Mol-Kelvin
 Total                   71.032             22.136             76.202
 Electronic               0.000              0.000              0.000
 Translational            0.889              2.981             38.902
 Rotational               0.889              2.981             25.878
 Vibrational             69.255             16.174             11.422
 Vibration     1          0.602              1.955              3.615
 Vibration     2          0.659              1.775              1.783
 Vibration     3          0.724              1.585              1.188
 Vibration     4          0.768              1.464              0.952
 Vibration     5          0.785              1.421              0.883
 Vibration     6          0.823              1.327              0.750
 Vibration     7          0.870              1.217              0.622
 Vibration     8          0.918              1.114              0.520

 Optimization completed.
    -- Stationary point found.
 Normal termination of Gaussian 09 at Tue Feb 27 15:38:15 2018.
