 Gaussian 09, Revision B.01,
 Gaussian 09:  EM64L-G09RevB.01 12-Aug-2010

 ----------------------------------------------------------------------
 # field=z-10 opt=(ts,calcfc,noeigen,z-matrix,tight,maxcycle=300) freq
 rb3lyp/6-31++g(d,p)
 ----------------------------------------------------------------------

 -------------
 H3O-BACK-TERM
 -------------
 Symbolic Z-matrix:
 Charge =  1 Multiplicity = 1

 SCF Done:  E(RB3LYP) =  -269.888191785     A.U. after   12 cycles
 Optimization completed.
    -- Stationary point found.
 Normal termination of Gaussian 09 at Fri Apr 27 11:44:45 2018.

 ----------------------------------------------------------------------
 #N Geom=AllCheck Guess=TCheck SCRF=Check GenChk RB3LYP/6-31++G(d,p) Fr
 eq
 ----------------------------------------------------------------------

 H3O-BACK-TERM
 -------------
 Z-Matrix taken from the checkpoint file:
 H3O-term-field.chk
 Charge =  1 Multiplicity = 1

                         Standard orientation:
 ---------------------------------------------------------------------
 Center     Atomic      Atomic             Coordinates (Angstroms)
 Number     Number       Type             X           Y           Z
 ---------------------------------------------------------------------
      1          6           0       -0.344954   -0.791775   -0.230295
      2          8           0       -2.205328    0.119408    0.054517
      3          1           0        0.083841    2.152749    0.177905
      4          1           0        1.830384    1.857532    0.269577
      5          1           0        0.613662    0.058204    1.520796
      6          1           0        1.807328   -1.560773    0.519743
      7          1           0       -0.682497   -1.694440    0.264637
      8          1           0       -2.762849   -0.146094    0.802805
      9          1           0       -2.795372    0.251739   -0.703718
     10          1           0       -0.461342   -0.722648   -1.305032
     11          6           0        0.886672    1.474496   -0.126512
     12          6           0        0.614580    0.105675    0.430992
     13          8           0        1.516124   -0.916944   -0.151227
     14          1           0        0.942687    1.453648   -1.218151
 ---------------------------------------------------------------------

 SCF Done:  E(RB3LYP) =  -269.888191785     A.U. after    1 cycles

 The electronic state is 1-A.
 Alpha  occ. eigenvalues --  -19.41101 -19.39004 -10.48878 -10.46097 -10.35199
 Alpha  occ. eigenvalues --   -1.27020  -1.23711  -0.99011  -0.89913  -0.79986
 Alpha  occ. eigenvalues --   -0.76177  -0.75056  -0.67196  -0.65748  -0.63079
 Alpha  occ. eigenvalues --   -0.60089  -0.58308  -0.55269  -0.54565  -0.54031
 Alpha  occ. eigenvalues --   -0.51759
 Alpha virt. eigenvalues --   -0.24967  -0.17564  -0.15120  -0.12573  -0.12069
 Alpha virt. eigenvalues --   -0.11277  -0.09380  -0.08797  -0.07778  -0.07180
 Alpha virt. eigenvalues --   -0.06894  -0.04658  -0.03770  -0.03127  -0.02391

 Mulliken atomic charges:
              1
     1  C   -0.150668
     2  O   -0.637529
     3  H    0.192014
     4  H    0.208228
     5  H    0.207461
     6  H    0.433754
     7  H    0.234153
     8  H    0.415860
     9  H    0.415370
    10  H    0.246356
    11  C   -0.436288
    12  C    0.045781
    13  O   -0.358236
    14  H    0.183746
 Sum of Mulliken atomic charges =   1.00000

 Dipole moment (field-independent basis, Debye):
    X=             -3.0424    Y=             -2.0164    Z=              1.4530  Tot=              3.9285
 Quadrupole moment (field-independent basis, Debye-Ang):
   XX=            -11.5490   YY=            -23.3137   ZZ=            -25.0793
   XY=             -0.0463   XZ=              3.4666   YZ=             -2.7437

  Exact polarizability:  58.526  -2.235  45.073   0.851  -0.301  38.991
 Approx polarizability:  81.822  -7.265  57.272  -0.105   0.046  54.466

 ******    1 imaginary frequencies (negative Signs) ******

                     1                      2                      3
                     A                      A                      A
 Frequencies --  -319.0279                80.3624               151.2685
 Red. masses --     6.0508                 1.0733                 3.3836
 Frc consts  --     0.3628                 0.0041                 0.0456
 IR Inten    --   327.9517                31.2454                 2.5162

                     4                      5                      6
                     A                      A                      A
 Frequencies --   185.8675               237.8022               296.6853
 Red. masses --     1.5871                 1.4182                 6.7788
 Frc consts  --     0.0323                 0.0473                 0.3516
 IR Inten    --     1.3119                 0.6078                11.6587

                     7                      8                      9
                     A                      A                      A
 Frequencies --   383.8330               401.6984               416.5632
 Red. masses --     1.8242                 1.4298                 2.2780
 Frc consts  --     0.1583                 0.1359                 0.2329
 IR Inten    --    32.3607               152.6169                79.0280

                    10                     11                     12
                     A                      A                      A
 Frequencies --   545.9522               670.1268               828.7924
 Red. masses --     1.1361                 1.1317                 3.0844
 Frc consts  --     0.1995                 0.2994                 1.2483
 IR Inten    --    39.5665                86.0655                52.1470

                    13                     14                     15
                     A                      A                      A
 Frequencies --   859.0947               915.1957              1002.7523
 Red. masses --     1.7242                 1.5364                 1.0793
 Frc consts  --     0.7498                 0.7582                 0.6394
 IR Inten    --    14.0302                23.0029                 6.1249

                    16                     17                     18
                     A                      A                      A
 Frequencies --  1044.6335              1101.7667              1160.9436
 Red. masses --     1.2598                 1.4575                 1.1688
 Frc consts  --     0.8100                 1.0424                 0.9281
 IR Inten    --     2.4979                60.8488                 9.3505

                    19                     20                     21
                     A                      A                      A
 Frequencies --  1224.3063              1244.2353              1309.0969
 Red. masses --     1.5331                 1.5745                 1.3911
 Frc consts  --     1.3540                 1.4361                 1.4046
 IR Inten    --     3.3057                16.3460                 9.3562

                    22                     23                     24
                     A                      A                      A
 Frequencies --  1406.6875              1440.9232              1475.2191
 Red. masses --     1.2529                 1.4035                 1.1282
 Frc consts  --     1.4606                 1.7169                 1.4466
 IR Inten    --     1.7728                14.8797                12.9222

                    25                     26                     27
                     A                      A                      A
 Frequencies --  1496.6751              1502.0287              1631.7639
 Red. masses --     1.0698                 1.2944                 1.0892
 Frc consts  --     1.4119                 1.7205                 1.7087
 IR Inten    --    15.6132                17.5637                74.4990

                    28                     29                     30
                     A                      A                      A
 Frequencies --  3063.7388              3137.4607              3147.4373
 Red. masses --     1.0355                 1.0965                 1.1010
 Frc consts  --     5.7266                 6.3595                 6.4264
 IR Inten    --     0.5511                 0.1247                 1.0131

                    31                     32                     33
                     A                      A                      A
 Frequencies --  3155.9297              3198.6085              3324.0856
 Red. masses --     1.1011                 1.0537                 1.1266
 Frc consts  --     6.4617                 6.3518                 7.3341
 IR Inten    --     3.1462                 2.5883                 5.8562

                    34                     35                     36
                     A                      A                      A
 Frequencies --  3741.9823              3756.3369              3866.9572
 Red. masses --     1.0674                 1.0440                 1.0850
 Frc consts  --     8.8061                 8.6796                 9.5594
 IR Inten    --   217.7269               101.7005               161.0541

 - Thermochemistry -
 -------------------
 Temperature   298.150 Kelvin.  Pressure   1.00000 Atm.
 Atom     1 has atomic number  6 and mass  12.00000

 Molecular mass:    77.06025 amu.
 Principal axes and moments of inertia in atomic units:
                           1         2         3
     Eigenvalues --   264.63330 588.59522 777.80225
           X            0.99929   0.03668   0.00905
           Y           -0.03644   0.99901  -0.02564
           Z           -0.00998   0.02529   0.99963
 This molecule is an asymmetric top.
 Rotational symmetry number  1.
 Rotational temperatures (Kelvin)      0.32730     0.14715     0.11136
 Rotational constants (GHZ):           6.81978     3.06618     2.32031
    1 imaginary frequencies ignored.
 Zero-point vibrational energy     319443.7 (Joules/Mol)
                                   76.34887 (Kcal/Mol)
 Warning -- explicit consideration of   9 degrees of freedom as
           vibrations may cause significant error
 Vibrational temperatures:    115.62   217.64   267.42   342.14   426.86
          (Kelvin)            552.25   577.95   599.34   785.50   964.16
                             1192.45  1236.04  1316.76  1442.74  1502.99
                             1585.19  1670.34  1761.50  1790.17  1883.50
                             2023.91  2073.16  2122.51  2153.38  2161.08
                             2347.74  4408.03  4514.10  4528.45  4540.67
                             4602.08  4782.61  5383.87  5404.52  5563.68

 Zero-point correction=                           0.121670 (Hartree/Particle)
 Thermal correction to Energy=                    0.129040
 Thermal correction to Enthalpy=                  0.129984
 Thermal correction to Gibbs Free Energy=         0.091016
 Sum of electronic and zero-point Energies=           -269.766522
 Sum of electronic and thermal Energies=              -269.759152
 Sum of electronic and thermal Enthalpies=            -269.758208
 Sum of electronic and thermal Free Energies=         -269.797176

                     E (Thermal)             CV                S
                      KCal/Mol        Cal/Mol-Kelvin    Cal/Mol-Kelvin
 Total                   80.974             25.432             82.016
 Electronic               0.000              0.000              0.000
 Translational            0.889              2.981             38.941
 Rotational               0.889              2.981             26.296
 Vibrational             79.196             19.470             16.778
 Vibration     1          0.600              1.962              3.882
 Vibration     2          0.619              1.901              2.656
 Vibration     3          0.632              1.859              2.269
 Vibration     4          0.656              1.783              1.819
 Vibration     5          0.690              1.680              1.436
 Vibration     6          0.753              1.505              1.024
 Vibration     7          0.767              1.466              0.956
 Vibration     8          0.780              1.434              0.904
 Vibration     9          0.901              1.149              0.553

 Optimization completed.
    -- Stationary point found.
 Normal termination of Gaussian 09 at Fri Apr 27 11:45:16 2018.
