 Gaussian 09, Revision B.01,
 Gaussian 09:  EM64L-G09RevB.01 12-Aug-2010

 ----------------------------------------------------------------------
 # opt=(z-matrix,ts,calcfc,noeigen,maxcycle=300) nosymm field=z-10 freq
  rb3lyp/6-31++g(d,p)
 ----------------------------------------------------------------------

 -------------
 H3O-BACK-MIDM
 -------------
 Symbolic Z-matrix:
 Charge =  1 Multiplicity = 1

 SCF Done:  E(RB3LYP) =  -269.890006402     A.U. after   12 cycles
 SCF Done:  E(RB3LYP) =  -269.890318535     A.U. after   12 cycles
 SCF Done:  E(RB3LYP) =  -269.891589362     A.U. after   12 cycles
 SCF Done:  E(RB3LYP) =  -269.891973762     A.U. after   10 cycles
 SCF Done:  E(RB3LYP) =  -269.892160015     A.U. after   10 cycles
 SCF Done:  E(RB3LYP) =  -269.892080695     A.U. after   10 cycles
 SCF Done:  E(RB3LYP) =  -269.892142414     A.U. after   11 cycles
 SCF Done:  E(RB3LYP) =  -269.892187215     A.U. after   10 cycles
 SCF Done:  E(RB3LYP) =  -269.892183879     A.U. after   10 cycles
 SCF Done:  E(RB3LYP) =  -269.892201574     A.U. after   10 cycles
 SCF Done:  E(RB3LYP) =  -269.892208022     A.U. after   10 cycles
 SCF Done:  E(RB3LYP) =  -269.892178612     A.U. after   10 cycles
 SCF Done:  E(RB3LYP) =  -269.892211131     A.U. after   10 cycles
 SCF Done:  E(RB3LYP) =  -269.892211784     A.U. after    9 cycles
 SCF Done:  E(RB3LYP) =  -269.892212020     A.U. after    9 cycles
 SCF Done:  E(RB3LYP) =  -269.892212144     A.U. after    7 cycles
 SCF Done:  E(RB3LYP) =  -269.892211311     A.U. after    9 cycles
 SCF Done:  E(RB3LYP) =  -269.892212192     A.U. after    9 cycles
 SCF Done:  E(RB3LYP) =  -269.892212204     A.U. after    8 cycles
 Optimization completed.
    -- Stationary point found.
 Normal termination of Gaussian 09 at Tue Feb 27 15:38:50 2018.

 ----------------------------------------------------------------------
 #N Geom=AllCheck Guess=TCheck SCRF=Check GenChk RB3LYP/6-31++G(d,p) Fr
 eq
 ----------------------------------------------------------------------

 H3O-BACK-MIDM
 -------------
 Z-Matrix taken from the checkpoint file:
 H3O-mid-field.chk
 Charge =  1 Multiplicity = 1

                          Input orientation:
 ---------------------------------------------------------------------
 Center     Atomic      Atomic             Coordinates (Angstroms)
 Number     Number       Type             X           Y           Z
 ---------------------------------------------------------------------
      1          6           0        0.000000    0.000000    0.000000
      2          8           0        0.000000    0.000000    2.348235
      3          1           0        2.149274    0.000000    0.418246
      4          1           0        1.460531   -1.626219    0.018742
      5          1           0       -0.325331   -0.717014    2.912323
      6          1           0        0.068974    0.781221    2.916561
      7          1           0       -0.079948    1.081511    0.083637
      8          1           0        1.714875    0.598613   -1.723299
      9          1           0       -1.633636   -0.432533   -1.248610
     10          1           0       -1.060923   -1.844939   -0.306216
     11          1           0       -1.976623   -0.498671    0.461275
     12          6           0        1.362771   -0.548241   -0.096545
     13          6           0       -1.220406   -0.766277   -0.286849
     14          8           0        1.242155   -0.225422   -1.512985
 ---------------------------------------------------------------------

 SCF Done:  E(RB3LYP) =  -269.892212204     A.U. after    1 cycles

 Alpha  occ. eigenvalues --  -19.40612 -19.35576 -10.49928 -10.45326 -10.38284
 Alpha  occ. eigenvalues --   -1.26523  -1.20450  -1.00871  -0.90849  -0.80263
 Alpha  occ. eigenvalues --   -0.74496  -0.72339  -0.67908  -0.66573  -0.62159
 Alpha  occ. eigenvalues --   -0.60637  -0.58033  -0.57739  -0.56243  -0.51702
 Alpha  occ. eigenvalues --   -0.50664
 Alpha virt. eigenvalues --   -0.27826  -0.16980  -0.15276  -0.12508  -0.12002
 Alpha virt. eigenvalues --   -0.10802  -0.09166  -0.08668  -0.08076  -0.07511
 Alpha virt. eigenvalues --   -0.06312  -0.04841  -0.04154  -0.02824  -0.01566

 Mulliken atomic charges:
              1
     1  C    0.201488
     2  O   -0.705381
     3  H    0.211771
     4  H    0.231578
     5  H    0.400315
     6  H    0.413987
     7  H    0.250132
     8  H    0.422760
     9  H    0.230937
    10  H    0.216467
    11  H    0.231110
    12  C   -0.143257
    13  C   -0.576602
    14  O   -0.385305
 Sum of Mulliken atomic charges =   1.00000

 Dipole moment (field-independent basis, Debye):
    X=              1.1738    Y=              0.2683    Z=              2.9272  Tot=              3.1652
 Quadrupole moment (field-independent basis, Debye-Ang):
   XX=            -20.8276   YY=            -23.9918   ZZ=            -15.0072
   XY=              3.1267   XZ=             -2.8147   YZ=             -2.0003

  Exact polarizability:  50.244   1.747  39.867  -4.678   0.545  52.970
 Approx polarizability:  65.096   1.699  55.059  -9.293   0.540  73.029

 ******    1 imaginary frequencies (negative Signs) ******

                     1                      2                      3
                     A                      A                      A
 Frequencies --  -195.0667                99.1601               124.5151
 Red. masses --     3.0975                 1.1808                 4.0158
 Frc consts  --     0.0694                 0.0068                 0.0367
 IR Inten    --   138.6116                19.3806                28.9434

                     4                      5                      6
                     A                      A                      A
 Frequencies --   143.1737               154.7072               205.6392
 Red. masses --     2.4230                 1.1998                 3.3209
 Frc consts  --     0.0293                 0.0169                 0.0827
 IR Inten    --     5.8448                31.1870                 6.6455

                     7                      8                      9
                     A                      A                      A
 Frequencies --   249.6890               292.5215               395.2168
 Red. masses --     1.8143                 1.5503                 1.4266
 Frc consts  --     0.0666                 0.0782                 0.1313
 IR Inten    --   142.5676                88.0320                38.2717

                    10                     11                     12
                     A                      A                      A
 Frequencies --   417.5667               558.1409               858.1387
 Red. masses --     1.4592                 1.1392                 2.4351
 Frc consts  --     0.1499                 0.2091                 1.0565
 IR Inten    --    27.0157               100.6515                31.1828

                    13                     14                     15
                     A                      A                      A
 Frequencies --   896.8813               938.5113               979.0801
 Red. masses --     1.1096                 1.7546                 2.0151
 Frc consts  --     0.5259                 0.9106                 1.1381
 IR Inten    --     7.9940                29.8064                19.9377

                    16                     17                     18
                     A                      A                      A
 Frequencies --  1041.4381              1074.6102              1219.9403
 Red. masses --     1.2181                 1.2885                 1.7542
 Frc consts  --     0.7784                 0.8767                 1.5382
 IR Inten    --    89.2792                 8.9421                 7.5422

                    19                     20                     21
                     A                      A                      A
 Frequencies --  1232.6016              1297.6290              1322.4253
 Red. masses --     1.8199                 1.1974                 1.2699
 Frc consts  --     1.6291                 1.1879                 1.3085
 IR Inten    --     5.5952                28.5628                 4.9130

                    22                     23                     24
                     A                      A                      A
 Frequencies --  1372.3290              1413.4963              1453.3156
 Red. masses --     1.1905                 1.3929                 1.0442
 Frc consts  --     1.3210                 1.6397                 1.2994
 IR Inten    --    61.8506                18.3699                 9.1750

                    25                     26                     27
                     A                      A                      A
 Frequencies --  1508.1392              1528.0636              1634.3491
 Red. masses --     1.2661                 1.2340                 1.0914
 Frc consts  --     1.6967                 1.6976                 1.7176
 IR Inten    --    17.2746                 8.8417                54.5004

                    28                     29                     30
                     A                      A                      A
 Frequencies --  3040.4036              3095.4778              3136.7213
 Red. masses --     1.0400                 1.0935                 1.0575
 Frc consts  --     5.6645                 6.1737                 6.1302
 IR Inten    --    24.2543                 4.8937                 0.5707

                    31                     32                     33
                     A                      A                      A
 Frequencies --  3169.5742              3210.0951              3224.2028
 Red. masses --     1.1047                 1.1038                 1.1073
 Frc consts  --     6.5389                 6.7015                 6.7819
 IR Inten    --     3.7893                 1.7115                 1.6697

                    34                     35                     36
                     A                      A                      A
 Frequencies --  3758.6265              3777.2614              3883.8762
 Red. masses --     1.0677                 1.0443                 1.0840
 Frc consts  --     8.8873                 8.7786                 9.6345
 IR Inten    --   201.5613                80.0628               140.6377

 - Thermochemistry -
 -------------------
 Temperature   298.150 Kelvin.  Pressure   1.00000 Atm.
 Atom     1 has atomic number  6 and mass  12.00000

 Molecular mass:    77.06025 amu.
 Principal axes and moments of inertia in atomic units:
                           1         2         3
     Eigenvalues --   276.46022 610.50094 803.90559
           X           -0.35714   0.91957  -0.16384
           Y            0.06320   0.19880   0.97800
           Z            0.93191   0.33892  -0.12912
 This molecule is an asymmetric top.
 Rotational symmetry number  1.
 Rotational temperatures (Kelvin)      0.31330     0.14187     0.10774
 Rotational constants (GHZ):           6.52803     2.95616     2.24497
    1 imaginary frequencies ignored.
 Zero-point vibrational energy     315261.0 (Joules/Mol)
                                   75.34918 (Kcal/Mol)
 Warning -- explicit consideration of  10 degrees of freedom as
           vibrations may cause significant error
 Vibrational temperatures:    142.67   179.15   205.99   222.59   295.87
          (Kelvin)            359.25   420.87   568.63   600.78   803.04
                             1234.67  1290.41  1350.31  1408.68  1498.40
                             1546.12  1755.22  1773.44  1867.00  1902.67
                             1974.47  2033.70  2090.99  2169.87  2198.54
                             2351.46  4374.46  4453.70  4513.04  4560.30
                             4618.61  4638.90  5407.82  5434.63  5588.02

 Zero-point correction=                           0.120077 (Hartree/Particle)
 Thermal correction to Energy=                    0.128233
 Thermal correction to Enthalpy=                  0.129177
 Thermal correction to Gibbs Free Energy=         0.088415
 Sum of electronic and zero-point Energies=           -269.772136
 Sum of electronic and thermal Energies=              -269.763980
 Sum of electronic and thermal Enthalpies=            -269.763035
 Sum of electronic and thermal Free Energies=         -269.803797

                     E (Thermal)             CV                S
                      KCal/Mol        Cal/Mol-Kelvin    Cal/Mol-Kelvin
 Total                   80.467             26.672             85.790
 Electronic               0.000              0.000              0.000
 Translational            0.889              2.981             38.941
 Rotational               0.889              2.981             26.409
 Vibrational             78.690             20.710             20.439
 Vibration     1          0.604              1.950              3.471
 Vibration     2          0.610              1.928              3.029
 Vibration     3          0.616              1.910              2.761
 Vibration     4          0.620              1.897              2.614
 Vibration     5          0.640              1.832              2.082
 Vibration     6          0.662              1.763              1.733
 Vibration     7          0.688              1.688              1.459
 Vibration     8          0.762              1.480              0.980
 Vibration     9          0.781              1.432              0.900
 Vibration    10          0.914              1.122              0.528

 Normal termination of Gaussian 09 at Tue Feb 27 15:39:17 2018.
