 Gaussian 09, Revision B.01,
 Gaussian 09:  EM64L-G09RevB.01 12-Aug-2010

 ----------------------------------------------------------------------
 # field=z-10 opt=(cartesian,calcall,ts,noeigen,z-matrix) freq b3lyp/6-
 31++g(d,p) nosymm
 ----------------------------------------------------------------------

 -----------
 OH-BACK-MID
 -----------
 Symbolic Z-matrix:
 Charge = -1 Multiplicity = 1

 SCF Done:  E(RB3LYP) =  -268.911868074     A.U. after   16 cycles
 SCF Done:  E(RB3LYP) =  -268.922811076     A.U. after   13 cycles
 SCF Done:  E(RB3LYP) =  -268.931858548     A.U. after   13 cycles
 SCF Done:  E(RB3LYP) =  -268.937824299     A.U. after   14 cycles
 SCF Done:  E(RB3LYP) =  -268.939181314     A.U. after   12 cycles
 SCF Done:  E(RB3LYP) =  -268.939370283     A.U. after   12 cycles
 SCF Done:  E(RB3LYP) =  -268.939382848     A.U. after   11 cycles
 SCF Done:  E(RB3LYP) =  -268.939382885     A.U. after    9 cycles
 Optimization completed.
    -- Stationary point found.
 ******    1 imaginary frequencies (negative Signs) ******
    1 imaginary frequencies ignored.
 Normal termination of Gaussian 09 at Fri Mar  9 14:52:43 2018.

 ----------------------------------------------------------------------
 #N Geom=AllCheck Guess=TCheck SCRF=Check GenChk RB3LYP/6-31++G(d,p) Fr
 eq
 ----------------------------------------------------------------------

 OH-BACK-MID
 -----------
 Redundant internal coordinates taken from checkpoint file:
 OH-mid-10.chk
 Charge = -1 Multiplicity = 1

                          Input orientation:
 ---------------------------------------------------------------------
 Center     Atomic      Atomic             Coordinates (Angstroms)
 Number     Number       Type             X           Y           Z
 ---------------------------------------------------------------------
      1          6           0       -0.064944    0.308271   -0.106837
      2          8           0       -0.417869   -0.295860    2.052026
      3          6           0        1.330520    0.069956   -0.418326
      4          6           0       -1.157551   -0.629026   -0.522583
      5          1           0        0.300176   -0.023329    2.643145
      6          1           0       -0.328477    1.268312    0.305596
      7          1           0        2.080140    0.619191    0.172772
      8          1           0        1.635723   -0.981217   -0.546865
      9          1           0       -0.742630   -1.482355   -1.070560
     10          1           0       -1.881943   -0.124890   -1.175657
     11          1           0       -1.655011   -0.982449    0.384974
     12          8           0        0.849952    0.720322   -1.571808
 ---------------------------------------------------------------------

 SCF Done:  E(RB3LYP) =  -268.939382885     A.U. after    1 cycles

 Alpha  occ. eigenvalues --  -18.94989 -18.86662 -10.07702 -10.06374 -10.02375
 Alpha  occ. eigenvalues --   -0.81847  -0.66843  -0.58601  -0.49291  -0.41676
 Alpha  occ. eigenvalues --   -0.32140  -0.28189  -0.25729  -0.23227  -0.20453
 Alpha  occ. eigenvalues --   -0.18793  -0.15321  -0.11026  -0.07654  -0.02119
 Alpha  occ. eigenvalues --   -0.01746
 Alpha virt. eigenvalues --    0.11336   0.12437   0.13280   0.15067   0.15753
 Alpha virt. eigenvalues --    0.16061   0.17124   0.18693   0.20681   0.21563
 Alpha virt. eigenvalues --    0.23524   0.23641   0.25210   0.25716   0.26133

 Mulliken atomic charges:
              1
     1  C    0.563670
     2  O   -0.975042
     3  C   -0.327545
     4  C   -0.744017
     5  H    0.251151
     6  H    0.189616
     7  H    0.079715
     8  H    0.069470
     9  H    0.147868
    10  H    0.110273
    11  H    0.185786
    12  O   -0.550945
 Sum of Mulliken atomic charges =  -1.00000

 Dipole moment (field-independent basis, Debye):
    X=              0.6143    Y=             -0.0262    Z=             -2.2563  Tot=              2.3386
 Quadrupole moment (field-independent basis, Debye-Ang):
   XX=            -38.0348   YY=            -38.1546   ZZ=            -57.8899
   XY=             -2.4429   XZ=              9.4172   YZ=              7.3010

  Exact polarizability:  66.194   2.284  57.531  -8.217  -5.787  84.177
 Approx polarizability:  83.497   2.667  75.757 -13.967 -12.819 118.520

 ******    1 imaginary frequencies (negative Signs) ******

                     1                      2                      3
                     A                      A                      A
 Frequencies --  -456.8739               123.5984               173.9920
 Red. masses --     5.7868                 1.1209                 2.4228
 Frc consts  --     0.7117                 0.0101                 0.0432
 IR Inten    --   619.3495                 5.0574                64.5817

                     4                      5                      6
                     A                      A                      A
 Frequencies --   192.0290               229.9273               291.0452
 Red. masses --     1.5948                 2.0655                 9.3145
 Frc consts  --     0.0346                 0.0643                 0.4649
 IR Inten    --    63.8789                15.8060                19.7326

                     7                      8                      9
                     A                      A                      A
 Frequencies --   316.3800               409.9099               496.9496
 Red. masses --     2.9407                 2.0922                 1.2479
 Frc consts  --     0.1734                 0.2071                 0.1816
 IR Inten    --    35.2867                 1.9770               135.8918

                    10                     11                     12
                     A                      A                      A
 Frequencies --   862.5064               915.2607               974.2651
 Red. masses --     1.6607                 1.3091                 1.1370
 Frc consts  --     0.7279                 0.6461                 0.6359
 IR Inten    --    16.7575                 5.6970                 3.2246

                    13                     14                     15
                     A                      A                      A
 Frequencies --   998.4598              1075.1165              1125.1789
 Red. masses --     1.9248                 2.1574                 1.2571
 Frc consts  --     1.1306                 1.4692                 0.9377
 IR Inten    --    12.5691               109.5051                 2.8654

                    16                     17                     18
                     A                      A                      A
 Frequencies --  1185.7160              1216.4479              1284.2282
 Red. masses --     1.7228                 1.4284                 1.3791
 Frc consts  --     1.4271                 1.2453                 1.3401
 IR Inten    --     0.3440                13.2793                 0.5986

                    19                     20                     21
                     A                      A                      A
 Frequencies --  1375.2536              1435.9422              1478.6866
 Red. masses --     1.2610                 1.7152                 1.0736
 Frc consts  --     1.4052                 2.0837                 1.3830
 IR Inten    --     7.9679                21.2222                 0.1401

                    22                     23                     24
                     A                      A                      A
 Frequencies --  1498.7649              1539.3819              2957.1345
 Red. masses --     1.1062                 1.4019                 1.0511
 Frc consts  --     1.4641                 1.9573                 5.4156
 IR Inten    --     3.6762                 5.6826               147.6545

                    25                     26                     27
                     A                      A                      A
 Frequencies --  2993.6992              3016.3632              3078.9087
 Red. masses --     1.1124                 1.0394                 1.0966
 Frc consts  --     5.8739                 5.5720                 6.1248
 IR Inten    --   115.0146                81.3096                49.3048

                    28                     29                     30
                     A                      A                      A
 Frequencies --  3123.3818              3288.9258              3779.2103
 Red. masses --     1.1009                 1.0923                 1.0669
 Frc consts  --     6.3276                 6.9613                 8.9780
 IR Inten    --     6.2731                 6.7406                27.7268

 - Thermochemistry -
 -------------------
 Temperature   298.150 Kelvin.  Pressure   1.00000 Atm.
 Atom     1 has atomic number  6 and mass  12.00000

 Molecular mass:    75.04460 amu.
 Principal axes and moments of inertia in atomic units:
                           1         2         3
     Eigenvalues --   234.24617 551.55802 708.16825
           X           -0.42194   0.83525  -0.35261
           Y           -0.24018   0.27205   0.93183
           Z            0.87423   0.47786   0.08582
 This molecule is an asymmetric top.
 Rotational symmetry number  1.
 Rotational temperatures (Kelvin)      0.36976     0.15703     0.12231
 Rotational constants (GHZ):           7.70446     3.27208     2.54846
    1 imaginary frequencies ignored.
 Zero-point vibrational energy     247846.3 (Joules/Mol)
                                   59.23668 (Kcal/Mol)
 Warning -- explicit consideration of   8 degrees of freedom as
           vibrations may cause significant error
 Vibrational temperatures:    177.83   250.34   276.29   330.81   418.75
          (Kelvin)            455.20   589.77   715.00  1240.95  1316.85
                             1401.75  1436.56  1546.85  1618.88  1705.98
                             1750.20  1847.72  1978.68  2066.00  2127.50
                             2156.39  2214.82  4254.65  4307.26  4339.87
                             4429.86  4493.84  4732.02  5437.43

 Zero-point correction=                           0.094400 (Hartree/Particle)
 Thermal correction to Energy=                    0.101287
 Thermal correction to Enthalpy=                  0.102231
 Thermal correction to Gibbs Free Energy=         0.064415
 Sum of electronic and zero-point Energies=           -268.844983
 Sum of electronic and thermal Energies=              -268.838096
 Sum of electronic and thermal Enthalpies=            -268.837152
 Sum of electronic and thermal Free Energies=         -268.874968

                     E (Thermal)             CV                S
                      KCal/Mol        Cal/Mol-Kelvin    Cal/Mol-Kelvin
 Total                   63.559             22.824             79.590
 Electronic               0.000              0.000              0.000
 Translational            0.889              2.981             38.862
 Rotational               0.889              2.981             26.017
 Vibrational             61.781             16.863             14.711
 Vibration     1          0.610              1.929              3.043
 Vibration     2          0.627              1.874              2.392
 Vibration     3          0.634              1.851              2.208
 Vibration     4          0.652              1.795              1.880
 Vibration     5          0.687              1.690              1.468
 Vibration     6          0.703              1.642              1.329
 Vibration     7          0.774              1.449              0.927
 Vibration     8          0.852              1.257              0.666

 Optimization completed.
    -- Stationary point found.
 Normal termination of Gaussian 09 at Fri Mar  9 14:53:04 2018.
