 Gaussian 09, Revision B.01,
 Gaussian 09:  EM64L-G09RevB.01 12-Aug-2010

 ----------------------------------------------------------------------
 # opt=(maxcycle=300,calcfc,tight,ts,noeigen,z-matrix) freq b3lyp/6-31+
 +g(d,p) field=z-10
 ----------------------------------------------------------------------

 -------------------
 Title Card Required
 -------------------
 Symbolic Z-matrix:
 Charge = -1 Multiplicity = 1

 SCF Done:  E(RB3LYP) =  -268.944501391     A.U. after   15 cycles
 SCF Done:  E(RB3LYP) =  -268.944502167     A.U. after   10 cycles
 SCF Done:  E(RB3LYP) =  -268.944502323     A.U. after    8 cycles
 SCF Done:  E(RB3LYP) =  -268.944502324     A.U. after    8 cycles
 SCF Done:  E(RB3LYP) =  -268.944502317     A.U. after    7 cycles
 SCF Done:  E(RB3LYP) =  -268.944502315     A.U. after    5 cycles
 Optimization completed.
    -- Stationary point found.
 Normal termination of Gaussian 09 at Fri Apr 27 11:45:43 2018.

 ----------------------------------------------------------------------
 #N Geom=AllCheck Guess=TCheck SCRF=Check GenChk RB3LYP/6-31++G(d,p) Fr
 eq
 ----------------------------------------------------------------------

 Title Card Required
 -------------------
 Z-Matrix taken from the checkpoint file:
 OH-term-field.chk
 Charge = -1 Multiplicity = 1

                         Standard orientation:
 ---------------------------------------------------------------------
 Center     Atomic      Atomic             Coordinates (Angstroms)
 Number     Number       Type             X           Y           Z
 ---------------------------------------------------------------------
      1          6           0       -0.370113   -0.769591   -0.165208
      2          8           0       -2.375457    0.246391   -0.075394
      3          1           0       -0.604196   -0.627663   -1.206717
      4          1           0       -2.545617    0.512595    0.840941
      5          1           0       -0.864720   -1.550604    0.386427
      6          1           0        0.690143    0.048749    1.546984
      7          1           0        2.083456    1.645966    0.168850
      8          1           0        0.358763    2.128640    0.157790
      9          1           0        1.061879    1.295276   -1.245653
     10          6           0        1.072963    1.356259   -0.151786
     11          6           0        0.687278    0.014683    0.444741
     12          8           0        1.310397   -1.129025   -0.101494
 ---------------------------------------------------------------------

 SCF Done:  E(RB3LYP) =  -268.944502315     A.U. after    1 cycles

 The electronic state is 1-A.
 Alpha  occ. eigenvalues --  -18.95704 -18.86499 -10.07421 -10.06513 -10.03697
 Alpha  occ. eigenvalues --   -0.83097  -0.66515  -0.58583  -0.50621  -0.41615
 Alpha  occ. eigenvalues --   -0.32675  -0.28628  -0.27071  -0.24041  -0.20806
 Alpha  occ. eigenvalues --   -0.18441  -0.15739  -0.12381  -0.08278  -0.01877
 Alpha  occ. eigenvalues --   -0.01525
 Alpha virt. eigenvalues --    0.10641   0.12717   0.13585   0.14322   0.15510
 Alpha virt. eigenvalues --    0.16308   0.16720   0.18995   0.21118   0.21254
 Alpha virt. eigenvalues --    0.23624   0.23889   0.24192   0.25393   0.25641

 Mulliken atomic charges:
              1
     1  C   -0.197125
     2  O   -0.964690
     3  H    0.187179
     4  H    0.234934
     5  H    0.163185
     6  H    0.077934
     7  H    0.119937
     8  H    0.109401
     9  H    0.129640
    10  C   -0.506454
    11  C    0.170840
    12  O   -0.524779
 Sum of Mulliken atomic charges =  -1.00000

 Dipole moment (field-independent basis, Debye):
    X=              4.6797    Y=              1.2480    Z=              1.7904  Tot=              5.1636
 Quadrupole moment (field-independent basis, Debye-Ang):
   XX=            -63.9042   YY=            -40.5640   ZZ=            -33.7246
   XY=              6.6169   XZ=             -2.8690   YZ=              0.6009

  Exact polarizability:  91.226  -4.226  66.600  -0.983   0.844  54.011
 Approx polarizability: 119.689 -14.315  84.342  -1.190   3.640  72.773

 ******    1 imaginary frequencies (negative Signs) ******

                     1                      2                      3
                     A                      A                      A
 Frequencies --  -445.1198               104.5193               149.4123
 Red. masses --     7.7842                 2.7109                 1.1970
 Frc consts  --     0.9087                 0.0174                 0.0157
 IR Inten    --   707.6762                70.2715                38.7860

                     4                      5                      6
                     A                      A                      A
 Frequencies --   179.1958               226.1758               292.0078
 Red. masses --     1.4771                 1.6936                 8.4020
 Frc consts  --     0.0279                 0.0510                 0.4221
 IR Inten    --    15.0227                16.7540                 8.5617

                     7                      8                      9
                     A                      A                      A
 Frequencies --   394.2588               422.9898               470.9727
 Red. masses --     2.3546                 2.1990                 1.2902
 Frc consts  --     0.2156                 0.2318                 0.1686
 IR Inten    --     7.0931                 7.7761               101.3918

                    10                     11                     12
                     A                      A                      A
 Frequencies --   817.6222               882.8104               918.6548
 Red. masses --     1.4671                 1.5121                 1.8254
 Frc consts  --     0.5779                 0.6943                 0.9076
 IR Inten    --     6.1420                21.6161                37.4799

                    13                     14                     15
                     A                      A                      A
 Frequencies --   972.6072              1019.0225              1092.4872
 Red. masses --     1.1485                 1.2719                 1.7023
 Frc consts  --     0.6401                 0.7782                 1.1971
 IR Inten    --    12.2074                 2.4596                23.5317

                    16                     17                     18
                     A                      A                      A
 Frequencies --  1160.4272              1210.7220              1287.7793
 Red. masses --     2.0183                 1.5577                 1.4110
 Frc consts  --     1.6013                 1.3453                 1.3787
 IR Inten    --    15.7512                18.0945                 3.7861

                    19                     20                     21
                     A                      A                      A
 Frequencies --  1378.4984              1410.9894              1467.1973
 Red. masses --     1.2312                 1.3196                 1.2046
 Frc consts  --     1.3784                 1.5479                 1.5278
 IR Inten    --     1.8390                18.4945                15.3879

                    22                     23                     24
                     A                      A                      A
 Frequencies --  1486.1361              1498.6708              2960.2217
 Red. masses --     1.1026                 1.5243                 1.0835
 Frc consts  --     1.4348                 2.0171                 5.5943
 IR Inten    --     1.8611                21.7559               114.0747

                    25                     26                     27
                     A                      A                      A
 Frequencies --  3009.9378              3077.8881              3101.9918
 Red. masses --     1.0386                 1.0968                 1.1019
 Frc consts  --     5.5436                 6.1217                 6.2470
 IR Inten    --    71.7476                48.7536                42.7726

                    28                     29                     30
                     A                      A                      A
 Frequencies --  3236.8594              3359.0479              3775.9631
 Red. masses --     1.0516                 1.1271                 1.0671
 Frc consts  --     6.4917                 7.4930                 8.9645
 IR Inten    --     8.3835                 5.1389                27.6171

 - Thermochemistry -
 -------------------
 Temperature   298.150 Kelvin.  Pressure   1.00000 Atm.
 Atom     1 has atomic number  6 and mass  12.00000

 Molecular mass:    75.04460 amu.
 Principal axes and moments of inertia in atomic units:
                           1         2         3
     Eigenvalues --   255.83083 580.65348 768.14846
           X            0.99778   0.06562  -0.01132
           Y           -0.06571   0.99781  -0.00700
           Z            0.01084   0.00773   0.99991
 This molecule is an asymmetric top.
 Rotational symmetry number  1.
 Rotational temperatures (Kelvin)      0.33856     0.14917     0.11276
 Rotational constants (GHZ):           7.05443     3.10812     2.34947
    1 imaginary frequencies ignored.
 Zero-point vibrational energy     247418.0 (Joules/Mol)
                                   59.13433 (Kcal/Mol)
 Warning -- explicit consideration of   8 degrees of freedom as
           vibrations may cause significant error
 Vibrational temperatures:    150.38   214.97   257.82   325.42   420.13
          (Kelvin)            567.25   608.59   677.62  1176.37  1270.17
                             1321.74  1399.36  1466.14  1571.84  1669.59
                             1741.96  1852.82  1983.35  2030.10  2110.97
                             2138.22  2156.25  4259.09  4330.62  4428.39
                             4463.07  4657.11  4832.91  5432.76

 Zero-point correction=                           0.094237 (Hartree/Particle)
 Thermal correction to Energy=                    0.101194
 Thermal correction to Enthalpy=                  0.102139
 Thermal correction to Gibbs Free Energy=         0.063950
 Sum of electronic and zero-point Energies=           -268.850266
 Sum of electronic and thermal Energies=              -268.843308
 Sum of electronic and thermal Enthalpies=            -268.842364
 Sum of electronic and thermal Free Energies=         -268.880553

                     E (Thermal)             CV                S
                      KCal/Mol        Cal/Mol-Kelvin    Cal/Mol-Kelvin
 Total                   63.500             23.097             80.376
 Electronic               0.000              0.000              0.000
 Translational            0.889              2.981             38.862
 Rotational               0.889              2.981             26.237
 Vibrational             61.723             17.135             15.276
 Vibration     1          0.605              1.946              3.368
 Vibration     2          0.618              1.903              2.680
 Vibration     3          0.629              1.868              2.337
 Vibration     4          0.650              1.801              1.909
 Vibration     5          0.687              1.689              1.462
 Vibration     6          0.761              1.482              0.984
 Vibration     7          0.785              1.420              0.882
 Vibration     8          0.828              1.314              0.735

 Optimization completed.
    -- Stationary point found.
 Normal termination of Gaussian 09 at Fri Apr 27 11:46:05 2018.
